/*--------------------------------*- C++ -*----------------------------------*\
| =========                 |                                                 |
| \\      /  F ield         | OpenFOAM: The Open Source CFD Toolbox           |
|  \\    /   O peration     | Version:  2212                                  |
|   \\  /    A nd           | Website:  www.openfoam.com                      |
|    \\/     M anipulation  |                                                 |
\*---------------------------------------------------------------------------*/
FoamFile
{
    version     2.0;
    format      ascii;
    arch        "LSB;label=32;scalar=64";
    class       volScalarField;
    location    "940";
    object      p_rgh_0;
}
// * * * * * * * * * * * * * * * * * * * * * * * * * * * * * * * * * * * * * //

dimensions      [1 -1 -2 0 0 0 0];

internalField   nonuniform List<scalar> 
204800
(
50.9542
50.9535
50.9518
50.9493
50.9456
50.9407
50.9345
50.927
50.918
50.9077
50.8961
50.8831
50.869
50.8537
50.8372
50.8196
50.8009
50.7812
50.7604
50.7385
50.7156
50.6917
50.6667
50.6408
50.6139
50.5859
50.557
50.5272
50.4963
50.4646
50.4319
50.3983
50.3638
50.3284
50.2922
50.2551
50.2171
50.1783
50.1387
50.0983
50.0571
50.0151
49.9723
49.9289
49.8846
49.8397
49.7941
49.7478
49.7008
49.6532
49.605
49.5562
49.5067
49.4568
49.4062
49.3551
49.3035
49.2514
49.1989
49.1458
49.0923
49.0384
48.9841
48.9294
48.8744
48.819
48.7632
48.7072
48.6509
48.5942
48.5374
48.4803
48.423
48.3655
48.3078
48.25
48.1921
48.134
48.0758
48.0176
47.9593
47.9009
47.8426
47.7842
47.7258
47.6675
47.6093
47.5511
47.493
47.435
47.3772
47.3195
47.2619
47.2046
47.1474
47.0904
47.0337
46.9772
46.921
46.8651
46.8094
46.7541
46.6991
46.6445
46.5902
46.5363
46.4827
46.4296
46.3769
46.3246
46.2727
46.2213
46.1704
46.12
46.07
46.0206
45.9717
45.9233
45.8754
45.8281
45.7814
45.7352
45.6896
45.6446
45.6002
45.5564
45.5132
45.4707
45.4288
45.3875
45.3469
45.3069
45.2676
45.2289
45.191
45.1537
45.1171
45.0812
45.0459
45.0114
44.9776
44.9445
44.9121
44.8804
44.8494
44.8191
44.7896
44.7608
44.7327
44.7053
44.6786
44.6527
44.6275
44.603
44.5793
44.5563
44.534
44.5124
44.4915
44.4714
44.4519
44.4332
44.4152
44.3979
44.3813
44.3655
44.3503
44.3358
44.322
44.3089
44.2964
44.2847
44.2736
44.2632
44.2534
44.2443
44.2359
44.2281
44.2209
44.2144
44.2084
44.2031
44.1985
44.1944
44.1909
44.188
44.1857
44.1839
44.1828
44.1821
44.1821
44.1825
44.1835
44.1851
44.1871
44.1897
44.1927
44.1963
44.2003
44.2048
44.2097
44.2151
44.221
44.2273
44.234
44.2411
44.2486
44.2565
44.2648
44.2735
44.2826
44.292
44.3017
44.3118
44.3222
44.333
44.344
44.3553
44.367
44.3789
44.391
44.4035
44.4161
44.429
44.4422
44.4555
44.4691
44.4829
44.4968
44.511
44.5253
44.5397
44.5543
44.5691
44.5839
44.5989
44.614
44.6293
44.6446
44.6599
44.6754
44.6909
44.7065
44.7221
44.7378
44.7535
44.7692
44.7849
44.8007
44.8164
44.8321
44.8478
44.8634
44.879
44.8946
44.9101
44.9256
44.9409
44.9562
44.9714
44.9865
45.0016
45.0165
45.0312
45.0459
45.0604
45.0748
45.0891
45.1032
45.1171
45.1309
45.1445
45.1579
45.1712
45.1843
45.1971
45.2098
45.2222
45.2345
45.2465
45.2583
45.2699
45.2812
45.2924
45.3032
45.3138
45.3242
45.3343
45.3442
45.3538
45.3631
45.3721
45.3809
45.3894
45.3976
45.4055
45.4131
45.4204
45.4275
45.4342
45.4406
45.4468
45.4526
45.4581
45.4633
45.4682
45.4728
45.477
45.4809
45.4845
45.4878
45.4908
45.4934
45.4957
45.4977
45.4994
45.5007
45.5017
45.5023
45.5027
50.8672
50.8657
50.8628
50.8587
50.8532
50.8467
50.8389
50.8301
50.8201
50.8091
50.7969
50.7836
50.7692
50.7537
50.7371
50.7195
50.7008
50.6811
50.6602
50.6384
50.6155
50.5916
50.5667
50.5408
50.5139
50.486
50.4572
50.4274
50.3966
50.3649
50.3323
50.2987
50.2643
50.229
50.1928
50.1557
50.1179
50.0791
50.0396
49.9992
49.9581
49.9162
49.8735
49.8301
49.786
49.7411
49.6956
49.6494
49.6025
49.555
49.5068
49.4581
49.4088
49.3589
49.3084
49.2574
49.2059
49.1539
49.1014
49.0485
48.9951
48.9413
48.8871
48.8325
48.7776
48.7223
48.6666
48.6107
48.5544
48.4979
48.4412
48.3842
48.327
48.2696
48.2121
48.1543
48.0965
48.0385
47.9805
47.9223
47.8641
47.8059
47.7476
47.6894
47.6311
47.5729
47.5148
47.4567
47.3987
47.3409
47.2831
47.2255
47.1681
47.1108
47.0537
46.9969
46.9403
46.8839
46.8278
46.772
46.7164
46.6612
46.6063
46.5518
46.4976
46.4437
46.3903
46.3373
46.2847
46.2325
46.1807
46.1294
46.0786
46.0283
45.9784
45.929
45.8802
45.8319
45.7841
45.7369
45.6903
45.6442
45.5987
45.5538
45.5094
45.4657
45.4226
45.3802
45.3383
45.2971
45.2566
45.2167
45.1774
45.1389
45.101
45.0638
45.0272
44.9914
44.9562
44.9218
44.888
44.8549
44.8226
44.791
44.76
44.7298
44.7004
44.6716
44.6435
44.6162
44.5896
44.5637
44.5386
44.5142
44.4905
44.4675
44.4452
44.4237
44.4029
44.3827
44.3634
44.3447
44.3267
44.3095
44.2929
44.2771
44.2619
44.2474
44.2337
44.2206
44.2082
44.1964
44.1854
44.175
44.1652
44.1562
44.1477
44.1399
44.1328
44.1263
44.1204
44.1151
44.1104
44.1063
44.1028
44.1
44.0976
44.0959
44.0947
44.0941
44.0941
44.0945
44.0955
44.0971
44.0991
44.1016
44.1047
44.1082
44.1122
44.1167
44.1217
44.1271
44.1329
44.1392
44.1459
44.153
44.1605
44.1684
44.1767
44.1854
44.1944
44.2038
44.2135
44.2236
44.234
44.2447
44.2557
44.2671
44.2787
44.2905
44.3027
44.3151
44.3277
44.3406
44.3538
44.3671
44.3806
44.3944
44.4083
44.4224
44.4367
44.4511
44.4657
44.4804
44.4953
44.5102
44.5253
44.5405
44.5558
44.5711
44.5866
44.6021
44.6176
44.6332
44.6488
44.6645
44.6802
44.6959
44.7116
44.7273
44.743
44.7586
44.7742
44.7898
44.8054
44.8208
44.8363
44.8516
44.8669
44.8821
44.8971
44.9121
44.927
44.9418
44.9564
44.9709
44.9853
44.9995
45.0136
45.0275
45.0412
45.0548
45.0682
45.0815
45.0945
45.1073
45.12
45.1324
45.1446
45.1566
45.1684
45.18
45.1913
45.2024
45.2132
45.2238
45.2342
45.2443
45.2541
45.2637
45.273
45.282
45.2908
45.2992
45.3074
45.3153
45.3229
45.3302
45.3373
45.344
45.3504
45.3565
45.3623
45.3678
45.373
45.3779
45.3825
45.3867
45.3906
45.3942
45.3975
45.4005
45.4031
45.4054
45.4074
45.409
45.4103
45.4113
45.412
45.4123
50.8487
50.8473
50.8444
50.8403
50.8348
50.8282
50.8205
50.8116
50.8016
50.7906
50.7783
50.765
50.7506
50.7351
50.7185
50.7009
50.6821
50.6624
50.6415
50.6197
50.5968
50.5729
50.548
50.522
50.4951
50.4672
50.4384
50.4086
50.3778
50.3461
50.3135
50.2799
50.2455
50.2102
50.174
50.1369
50.099
50.0603
50.0208
49.9804
49.9393
49.8974
49.8547
49.8113
49.7671
49.7223
49.6768
49.6305
49.5837
49.5362
49.488
49.4393
49.39
49.3401
49.2896
49.2386
49.1871
49.1351
49.0826
49.0297
48.9763
48.9225
48.8683
48.8137
48.7588
48.7035
48.6478
48.5919
48.5357
48.4792
48.4224
48.3654
48.3083
48.2509
48.1933
48.1356
48.0778
48.0198
47.9617
47.9036
47.8454
47.7872
47.7289
47.6707
47.6124
47.5543
47.4961
47.438
47.3801
47.3222
47.2644
47.2069
47.1494
47.0922
47.0351
46.9783
46.9216
46.8653
46.8092
46.7534
46.6978
46.6426
46.5877
46.5332
46.479
46.4252
46.3717
46.3187
46.2661
46.2139
46.1622
46.1109
46.0601
46.0097
45.9599
45.9105
45.8617
45.8134
45.7657
45.7184
45.6718
45.6257
45.5802
45.5353
45.491
45.4473
45.4042
45.3617
45.3199
45.2787
45.2382
45.1983
45.1591
45.1205
45.0826
45.0454
45.0089
44.973
44.9379
44.9034
44.8697
44.8366
44.8043
44.7726
44.7417
44.7115
44.6821
44.6533
44.6253
44.5979
44.5713
44.5455
44.5203
44.4959
44.4722
44.4492
44.427
44.4054
44.3846
44.3645
44.3452
44.3265
44.3085
44.2913
44.2747
44.2589
44.2437
44.2293
44.2155
44.2024
44.19
44.1783
44.1672
44.1568
44.1471
44.138
44.1296
44.1218
44.1147
44.1082
44.1023
44.097
44.0923
44.0882
44.0848
44.0819
44.0796
44.0779
44.0767
44.0761
44.076
44.0765
44.0775
44.079
44.0811
44.0836
44.0867
44.0902
44.0942
44.0987
44.1037
44.1091
44.1149
44.1212
44.1279
44.135
44.1425
44.1504
44.1587
44.1674
44.1764
44.1858
44.1956
44.2056
44.216
44.2268
44.2378
44.2491
44.2607
44.2726
44.2847
44.2971
44.3098
44.3227
44.3358
44.3491
44.3627
44.3764
44.3904
44.4045
44.4187
44.4332
44.4477
44.4625
44.4773
44.4923
44.5074
44.5226
44.5378
44.5532
44.5686
44.5841
44.5997
44.6153
44.6309
44.6466
44.6623
44.678
44.6937
44.7093
44.725
44.7407
44.7563
44.7719
44.7874
44.8029
44.8183
44.8337
44.8489
44.8641
44.8792
44.8942
44.9091
44.9238
44.9385
44.953
44.9673
44.9816
44.9956
45.0095
45.0233
45.0369
45.0503
45.0635
45.0765
45.0894
45.102
45.1145
45.1267
45.1387
45.1505
45.162
45.1734
45.1844
45.1953
45.2059
45.2162
45.2263
45.2362
45.2457
45.255
45.264
45.2728
45.2813
45.2895
45.2974
45.305
45.3123
45.3193
45.326
45.3325
45.3386
45.3444
45.3499
45.3551
45.3599
45.3645
45.3687
45.3727
45.3763
45.3795
45.3825
45.3851
45.3874
45.3894
45.3911
45.3924
45.3934
45.394
45.3944
50.771
50.7693
50.7659
50.7611
50.7548
50.7474
50.7389
50.7293
50.7187
50.7071
50.6945
50.6809
50.6662
50.6505
50.6338
50.616
50.5972
50.5774
50.5565
50.5347
50.5118
50.4878
50.4629
50.437
50.4101
50.3822
50.3534
50.3236
50.2928
50.2612
50.2286
50.1951
50.1607
50.1254
50.0892
50.0522
50.0144
49.9757
49.9362
49.8959
49.8548
49.8129
49.7703
49.727
49.6829
49.6381
49.5926
49.5464
49.4996
49.4522
49.4041
49.3554
49.3061
49.2563
49.2059
49.155
49.1036
49.0516
48.9992
48.9463
48.893
48.8393
48.7852
48.7306
48.6758
48.6205
48.565
48.5091
48.4529
48.3965
48.3398
48.2829
48.2258
48.1685
48.111
48.0534
47.9956
47.9377
47.8797
47.8217
47.7636
47.7054
47.6472
47.589
47.5309
47.4728
47.4147
47.3567
47.2988
47.241
47.1833
47.1258
47.0685
47.0113
46.9543
46.8975
46.841
46.7847
46.7287
46.6729
46.6175
46.5623
46.5075
46.453
46.3989
46.3452
46.2918
46.2389
46.1863
46.1342
46.0825
46.0313
45.9806
45.9303
45.8805
45.8312
45.7825
45.7342
45.6866
45.6394
45.5928
45.5468
45.5014
45.4565
45.4123
45.3686
45.3256
45.2832
45.2414
45.2003
45.1598
45.12
45.0808
45.0423
45.0045
44.9673
44.9308
44.895
44.8599
44.8255
44.7918
44.7588
44.7265
44.695
44.6641
44.6339
44.6045
44.5758
44.5478
44.5205
44.494
44.4681
44.443
44.4186
44.395
44.372
44.3498
44.3283
44.3075
44.2875
44.2681
44.2495
44.2316
44.2143
44.1978
44.182
44.1669
44.1525
44.1387
44.1257
44.1133
44.1016
44.0905
44.0802
44.0705
44.0614
44.053
44.0452
44.0381
44.0316
44.0257
44.0204
44.0158
44.0117
44.0083
44.0054
44.0031
44.0014
44.0002
43.9996
43.9996
44
44.0011
44.0026
44.0046
44.0072
44.0102
44.0138
44.0178
44.0223
44.0272
44.0326
44.0385
44.0448
44.0514
44.0586
44.0661
44.074
44.0823
44.0909
44.1
44.1094
44.1191
44.1292
44.1395
44.1503
44.1613
44.1726
44.1842
44.196
44.2082
44.2206
44.2332
44.2461
44.2592
44.2725
44.2861
44.2998
44.3137
44.3278
44.3421
44.3565
44.371
44.3857
44.4006
44.4155
44.4306
44.4458
44.461
44.4764
44.4918
44.5073
44.5228
44.5384
44.554
44.5697
44.5853
44.601
44.6167
44.6324
44.648
44.6637
44.6793
44.6948
44.7103
44.7258
44.7412
44.7565
44.7718
44.7869
44.802
44.817
44.8318
44.8466
44.8612
44.8757
44.89
44.9042
44.9183
44.9322
44.9459
44.9595
44.9729
44.9861
44.9991
45.0119
45.0246
45.037
45.0492
45.0612
45.073
45.0845
45.0958
45.1069
45.1177
45.1283
45.1386
45.1487
45.1585
45.1681
45.1774
45.1864
45.1951
45.2036
45.2118
45.2197
45.2273
45.2346
45.2416
45.2483
45.2547
45.2608
45.2666
45.2721
45.2773
45.2822
45.2867
45.291
45.2949
45.2985
45.3017
45.3047
45.3073
45.3096
45.3116
45.3132
45.3146
45.3155
45.3162
45.3165
50.7406
50.739
50.7356
50.7308
50.7247
50.7173
50.7088
50.6993
50.6887
50.6771
50.6644
50.6508
50.6361
50.6203
50.6036
50.5858
50.5669
50.5471
50.5262
50.5042
50.4813
50.4574
50.4324
50.4065
50.3796
50.3517
50.3228
50.293
50.2622
50.2306
50.1979
50.1644
50.13
50.0947
50.0586
50.0215
49.9837
49.945
49.9055
49.8652
49.8241
49.7822
49.7396
49.6962
49.6522
49.6074
49.5619
49.5157
49.4689
49.4214
49.3734
49.3247
49.2754
49.2256
49.1752
49.1243
49.0728
49.0209
48.9685
48.9156
48.8623
48.8086
48.7544
48.6999
48.645
48.5898
48.5342
48.4784
48.4222
48.3658
48.3091
48.2522
48.1951
48.1378
48.0803
48.0226
47.9649
47.907
47.849
47.7909
47.7328
47.6747
47.6165
47.5583
47.5002
47.4421
47.384
47.326
47.2681
47.2103
47.1527
47.0951
47.0378
46.9806
46.9236
46.8669
46.8103
46.754
46.698
46.6423
46.5868
46.5317
46.4769
46.4224
46.3683
46.3146
46.2612
46.2083
46.1557
46.1036
46.0519
46.0007
45.95
45.8997
45.85
45.8007
45.7519
45.7037
45.656
45.6089
45.5623
45.5163
45.4709
45.426
45.3818
45.3382
45.2951
45.2527
45.211
45.1699
45.1294
45.0895
45.0504
45.0119
44.9741
44.9369
44.9004
44.8647
44.8296
44.7952
44.7615
44.7285
44.6962
44.6646
44.6338
44.6036
44.5742
44.5455
44.5175
44.4903
44.4637
44.4379
44.4128
44.3884
44.3648
44.3418
44.3196
44.2982
44.2774
44.2573
44.238
44.2194
44.2014
44.1842
44.1677
44.1519
44.1368
44.1224
44.1086
44.0956
44.0832
44.0715
44.0605
44.0502
44.0405
44.0314
44.023
44.0152
44.0081
44.0016
43.9958
43.9905
43.9859
43.9818
43.9784
43.9755
43.9732
43.9715
43.9703
43.9697
43.9697
43.9702
43.9712
43.9728
43.9748
43.9774
43.9804
43.984
43.988
43.9925
43.9975
44.0029
44.0087
44.015
44.0217
44.0288
44.0363
44.0443
44.0526
44.0612
44.0703
44.0797
44.0894
44.0995
44.1099
44.1206
44.1316
44.1429
44.1545
44.1664
44.1785
44.1909
44.2036
44.2165
44.2296
44.2429
44.2564
44.2702
44.2841
44.2982
44.3125
44.3269
44.3414
44.3562
44.371
44.386
44.401
44.4162
44.4315
44.4468
44.4622
44.4777
44.4932
44.5088
44.5245
44.5401
44.5558
44.5715
44.5871
44.6028
44.6185
44.6341
44.6497
44.6653
44.6808
44.6963
44.7117
44.727
44.7423
44.7574
44.7725
44.7875
44.8023
44.8171
44.8317
44.8462
44.8605
44.8747
44.8888
44.9027
44.9164
44.93
44.9434
44.9566
44.9696
44.9824
44.995
45.0075
45.0197
45.0317
45.0434
45.055
45.0663
45.0774
45.0882
45.0988
45.1091
45.1192
45.129
45.1386
45.1479
45.1569
45.1656
45.1741
45.1822
45.1901
45.1977
45.205
45.2121
45.2188
45.2252
45.2313
45.2371
45.2426
45.2478
45.2526
45.2572
45.2614
45.2653
45.2689
45.2722
45.2752
45.2778
45.2801
45.2821
45.2837
45.285
45.286
45.2867
45.287
50.6697
50.668
50.6645
50.6595
50.653
50.6453
50.6364
50.6265
50.6155
50.6036
50.5907
50.5768
50.5619
50.546
50.5291
50.5112
50.4922
50.4723
50.4514
50.4294
50.4064
50.3824
50.3575
50.3315
50.3046
50.2767
50.2478
50.218
50.1873
50.1556
50.123
50.0895
50.0551
50.0198
49.9837
49.9467
49.9088
49.8701
49.8307
49.7904
49.7493
49.7075
49.6649
49.6215
49.5775
49.5327
49.4873
49.4411
49.3944
49.3469
49.2989
49.2502
49.201
49.1512
49.1009
49.05
48.9986
48.9467
48.8943
48.8415
48.7882
48.7345
48.6804
48.6259
48.5711
48.5159
48.4604
48.4046
48.3485
48.2921
48.2354
48.1786
48.1215
48.0642
48.0068
47.9492
47.8915
47.8337
47.7757
47.7177
47.6597
47.6016
47.5434
47.4853
47.4272
47.3691
47.3111
47.2532
47.1953
47.1376
47.08
47.0225
46.9652
46.9081
46.8511
46.7944
46.7379
46.6817
46.6257
46.57
46.5146
46.4595
46.4048
46.3504
46.2963
46.2426
46.1893
46.1364
46.0839
46.0318
45.9802
45.9291
45.8784
45.8282
45.7784
45.7292
45.6805
45.6323
45.5847
45.5376
45.4911
45.4451
45.3997
45.3549
45.3107
45.2671
45.2242
45.1818
45.1401
45.099
45.0586
45.0188
44.9796
44.9412
44.9034
44.8663
44.8299
44.7941
44.7591
44.7247
44.6911
44.6581
44.6259
44.5943
44.5635
44.5334
44.504
44.4753
44.4474
44.4202
44.3937
44.3679
44.3428
44.3185
44.2948
44.2719
44.2498
44.2283
44.2076
44.1875
44.1682
44.1496
44.1317
44.1146
44.0981
44.0823
44.0672
44.0528
44.0391
44.0261
44.0137
44.0021
43.991
43.9807
43.971
43.962
43.9536
43.9459
43.9388
43.9323
43.9264
43.9212
43.9166
43.9125
43.9091
43.9063
43.904
43.9023
43.9011
43.9006
43.9005
43.901
43.9021
43.9036
43.9057
43.9083
43.9113
43.9149
43.9189
43.9234
43.9284
43.9338
43.9397
43.9459
43.9526
43.9598
43.9673
43.9752
43.9835
43.9922
44.0012
44.0106
44.0204
44.0304
44.0408
44.0515
44.0626
44.0739
44.0855
44.0974
44.1095
44.1219
44.1345
44.1474
44.1605
44.1739
44.1874
44.2011
44.215
44.2291
44.2434
44.2578
44.2724
44.2871
44.3019
44.3168
44.3319
44.3471
44.3623
44.3777
44.3931
44.4086
44.4241
44.4397
44.4553
44.4709
44.4866
44.5022
44.5179
44.5336
44.5492
44.5649
44.5805
44.596
44.6115
44.627
44.6424
44.6577
44.6729
44.6881
44.7032
44.7181
44.733
44.7477
44.7623
44.7768
44.7911
44.8053
44.8194
44.8333
44.847
44.8606
44.8739
44.8871
44.9001
44.913
44.9256
44.938
44.9502
44.9622
44.9739
44.9855
44.9968
45.0078
45.0187
45.0292
45.0396
45.0496
45.0594
45.069
45.0783
45.0873
45.096
45.1045
45.1126
45.1205
45.1281
45.1354
45.1424
45.1491
45.1555
45.1616
45.1674
45.1729
45.1781
45.183
45.1875
45.1918
45.1957
45.1993
45.2025
45.2055
45.2081
45.2104
45.2124
45.214
45.2153
45.2163
45.217
45.2173
50.6313
50.6297
50.6262
50.6213
50.6149
50.6073
50.5984
50.5886
50.5777
50.5658
50.5528
50.5389
50.524
50.5081
50.4911
50.4731
50.4542
50.4342
50.4132
50.3912
50.3682
50.3442
50.3192
50.2932
50.2662
50.2383
50.2094
50.1795
50.1488
50.1171
50.0844
50.0509
50.0165
49.9812
49.945
49.908
49.8702
49.8315
49.792
49.7517
49.7106
49.6688
49.6262
49.5828
49.5388
49.494
49.4485
49.4024
49.3556
49.3081
49.2601
49.2114
49.1622
49.1124
49.062
49.0111
48.9597
48.9078
48.8554
48.8026
48.7493
48.6956
48.6415
48.587
48.5322
48.477
48.4215
48.3656
48.3095
48.2531
48.1965
48.1396
48.0826
48.0253
47.9678
47.9103
47.8525
47.7947
47.7367
47.6787
47.6207
47.5626
47.5044
47.4463
47.3882
47.3301
47.2721
47.2142
47.1563
47.0986
47.0409
46.9835
46.9262
46.869
46.8121
46.7554
46.6989
46.6427
46.5867
46.531
46.4756
46.4205
46.3657
46.3113
46.2573
46.2036
46.1503
46.0974
46.0449
45.9928
45.9412
45.89
45.8394
45.7891
45.7394
45.6902
45.6415
45.5933
45.5457
45.4986
45.4521
45.4061
45.3607
45.3159
45.2718
45.2282
45.1852
45.1429
45.1011
45.0601
45.0196
44.9799
44.9407
44.9023
44.8645
44.8274
44.791
44.7553
44.7202
44.6859
44.6522
44.6193
44.5871
44.5555
44.5247
44.4946
44.4653
44.4366
44.4087
44.3814
44.3549
44.3292
44.3041
44.2798
44.2562
44.2333
44.2111
44.1897
44.1689
44.1489
44.1296
44.111
44.0932
44.076
44.0595
44.0438
44.0287
44.0143
44.0006
43.9876
43.9753
43.9636
43.9526
43.9423
43.9326
43.9236
43.9152
43.9075
43.9004
43.894
43.8881
43.8829
43.8783
43.8743
43.8708
43.868
43.8657
43.8641
43.8629
43.8624
43.8623
43.8629
43.8639
43.8655
43.8675
43.8701
43.8732
43.8768
43.8808
43.8853
43.8903
43.8957
43.9016
43.9079
43.9146
43.9218
43.9293
43.9372
43.9455
43.9542
43.9633
43.9727
43.9824
43.9925
44.0029
44.0136
44.0247
44.036
44.0476
44.0595
44.0717
44.0841
44.0967
44.1096
44.1227
44.1361
44.1496
44.1633
44.1772
44.1913
44.2056
44.22
44.2346
44.2493
44.2642
44.2791
44.2942
44.3094
44.3246
44.34
44.3554
44.3709
44.3864
44.402
44.4176
44.4333
44.4489
44.4646
44.4803
44.496
44.5116
44.5272
44.5428
44.5584
44.5739
44.5894
44.6048
44.6201
44.6353
44.6505
44.6656
44.6805
44.6954
44.7101
44.7247
44.7392
44.7536
44.7678
44.7818
44.7957
44.8094
44.823
44.8364
44.8496
44.8626
44.8754
44.888
44.9004
44.9126
44.9246
44.9364
44.9479
44.9592
44.9703
44.9811
44.9917
45.002
45.0121
45.0219
45.0315
45.0407
45.0497
45.0585
45.0669
45.0751
45.083
45.0906
45.0979
45.1049
45.1116
45.118
45.1241
45.1299
45.1354
45.1406
45.1455
45.15
45.1542
45.1582
45.1618
45.165
45.168
45.1706
45.1729
45.1749
45.1765
45.1778
45.1788
45.1795
45.1798
50.5655
50.5638
50.5603
50.5553
50.5488
50.5411
50.5321
50.5221
50.511
50.4989
50.4858
50.4717
50.4566
50.4406
50.4235
50.4055
50.3864
50.3663
50.3453
50.3232
50.3001
50.2761
50.251
50.225
50.198
50.1701
50.1412
50.1113
50.0805
50.0488
50.0162
49.9826
49.9482
49.9129
49.8768
49.8398
49.8019
49.7632
49.7237
49.6834
49.6424
49.6005
49.5579
49.5146
49.4705
49.4258
49.3803
49.3342
49.2874
49.24
49.1919
49.1433
49.0941
49.0443
48.9939
48.943
48.8917
48.8398
48.7874
48.7346
48.6813
48.6277
48.5736
48.5191
48.4643
48.4091
48.3536
48.2978
48.2417
48.1853
48.1287
48.0719
48.0148
47.9576
47.9001
47.8426
47.7849
47.727
47.6691
47.6111
47.5531
47.495
47.4369
47.3788
47.3207
47.2627
47.2047
47.1468
47.0889
47.0312
46.9736
46.9162
46.8589
46.8018
46.7449
46.6882
46.6317
46.5755
46.5196
46.4639
46.4085
46.3535
46.2988
46.2444
46.1903
46.1367
46.0834
46.0305
45.9781
45.926
45.8745
45.8233
45.7727
45.7225
45.6728
45.6236
45.5749
45.5268
45.4792
45.4321
45.3856
45.3397
45.2943
45.2496
45.2054
45.1619
45.1189
45.0766
45.0349
44.9939
44.9535
44.9137
44.8746
44.8362
44.7985
44.7614
44.725
44.6893
44.6543
44.62
44.5864
44.5534
44.5212
44.4897
44.459
44.4289
44.3995
44.3709
44.343
44.3158
44.2893
44.2636
44.2386
44.2143
44.1907
44.1678
44.1457
44.1242
44.1035
44.0836
44.0643
44.0457
44.0279
44.0107
43.9943
43.9785
43.9635
43.9491
43.9354
43.9225
43.9101
43.8985
43.8875
43.8772
43.8676
43.8586
43.8503
43.8426
43.8355
43.829
43.8232
43.818
43.8134
43.8094
43.806
43.8032
43.8009
43.7993
43.7982
43.7976
43.7976
43.7981
43.7992
43.8008
43.8029
43.8055
43.8086
43.8122
43.8162
43.8208
43.8257
43.8312
43.8371
43.8434
43.8501
43.8572
43.8648
43.8727
43.881
43.8897
43.8988
43.9082
43.918
43.9281
43.9385
43.9492
43.9603
43.9716
43.9832
43.9951
44.0073
44.0197
44.0323
44.0452
44.0583
44.0717
44.0852
44.099
44.1129
44.127
44.1413
44.1557
44.1703
44.185
44.1998
44.2148
44.2299
44.245
44.2603
44.2756
44.2911
44.3065
44.3221
44.3377
44.3533
44.3689
44.3846
44.4003
44.4159
44.4316
44.4473
44.4629
44.4785
44.4941
44.5096
44.525
44.5404
44.5558
44.571
44.5862
44.6012
44.6162
44.631
44.6458
44.6604
44.6749
44.6892
44.7034
44.7174
44.7313
44.7451
44.7586
44.772
44.7852
44.7982
44.811
44.8236
44.836
44.8482
44.8602
44.872
44.8835
44.8948
44.9059
44.9167
44.9273
44.9376
44.9477
44.9575
44.967
44.9763
44.9853
44.994
45.0025
45.0107
45.0185
45.0261
45.0334
45.0404
45.0471
45.0536
45.0597
45.0655
45.0709
45.0761
45.081
45.0855
45.0898
45.0937
45.0973
45.1005
45.1035
45.1061
45.1084
45.1104
45.112
45.1133
45.1143
45.115
45.1153
50.5217
50.5201
50.5167
50.5118
50.5054
50.4978
50.4889
50.4789
50.4679
50.4558
50.4427
50.4286
50.4135
50.3974
50.3803
50.3622
50.3431
50.323
50.3019
50.2798
50.2567
50.2326
50.2075
50.1814
50.1544
50.1264
50.0975
50.0676
50.0368
50.005
49.9724
49.9388
49.9043
49.869
49.8328
49.7958
49.7579
49.7192
49.6797
49.6394
49.5983
49.5564
49.5138
49.4704
49.4264
49.3816
49.3361
49.29
49.2432
49.1957
49.1477
49.099
49.0497
48.9999
48.9496
48.8987
48.8473
48.7954
48.743
48.6902
48.6369
48.5832
48.5291
48.4746
48.4198
48.3646
48.309
48.2532
48.1971
48.1407
48.0841
48.0272
47.9702
47.9129
47.8555
47.7979
47.7402
47.6823
47.6244
47.5664
47.5083
47.4502
47.3921
47.334
47.2759
47.2178
47.1598
47.1019
47.0441
46.9863
46.9287
46.8713
46.814
46.7569
46.7
46.6433
46.5868
46.5306
46.4746
46.419
46.3636
46.3085
46.2538
46.1994
46.1453
46.0917
46.0384
45.9855
45.933
45.881
45.8294
45.7783
45.7276
45.6774
45.6277
45.5785
45.5299
45.4817
45.4341
45.3871
45.3406
45.2946
45.2493
45.2045
45.1604
45.1168
45.0739
45.0316
44.9899
44.9488
44.9084
44.8687
44.8296
44.7912
44.7535
44.7164
44.68
44.6443
44.6093
44.575
44.5414
44.5085
44.4763
44.4448
44.414
44.384
44.3546
44.326
44.2981
44.2709
44.2445
44.2187
44.1937
44.1694
44.1459
44.123
44.1009
44.0795
44.0588
44.0388
44.0196
44.001
43.9832
43.966
43.9496
43.9339
43.9189
43.9045
43.8909
43.8779
43.8656
43.854
43.843
43.8327
43.8231
43.8141
43.8058
43.7981
43.7911
43.7846
43.7788
43.7736
43.7691
43.7651
43.7617
43.7589
43.7567
43.755
43.7539
43.7534
43.7534
43.754
43.755
43.7566
43.7587
43.7614
43.7645
43.7681
43.7722
43.7767
43.7817
43.7872
43.7931
43.7994
43.8061
43.8133
43.8209
43.8288
43.8371
43.8459
43.8549
43.8644
43.8741
43.8842
43.8947
43.9054
43.9165
43.9278
43.9395
43.9514
43.9635
43.976
43.9886
44.0016
44.0147
44.028
44.0416
44.0553
44.0693
44.0834
44.0977
44.1121
44.1267
44.1414
44.1563
44.1713
44.1864
44.2015
44.2168
44.2322
44.2476
44.2631
44.2786
44.2942
44.3099
44.3255
44.3412
44.3569
44.3726
44.3882
44.4039
44.4196
44.4352
44.4507
44.4663
44.4817
44.4971
44.5125
44.5277
44.5429
44.5579
44.5729
44.5878
44.6025
44.6171
44.6316
44.646
44.6602
44.6742
44.6881
44.7018
44.7154
44.7288
44.742
44.755
44.7678
44.7804
44.7928
44.8051
44.817
44.8288
44.8403
44.8516
44.8627
44.8735
44.8841
44.8944
44.9045
44.9143
44.9239
44.9332
44.9422
44.9509
44.9594
44.9675
44.9754
44.983
44.9903
44.9973
45.004
45.0104
45.0165
45.0223
45.0278
45.033
45.0379
45.0424
45.0467
45.0506
45.0542
45.0574
45.0604
45.063
45.0653
45.0673
45.0689
45.0702
45.0712
45.0719
45.0722
50.4595
50.4579
50.4545
50.4496
50.4432
50.4355
50.4266
50.4166
50.4055
50.3933
50.3801
50.366
50.3508
50.3346
50.3174
50.2992
50.28
50.2598
50.2386
50.2165
50.1933
50.1691
50.144
50.1179
50.0908
50.0628
50.0338
50.0039
49.9731
49.9413
49.9086
49.875
49.8406
49.8052
49.769
49.7319
49.6941
49.6553
49.6158
49.5755
49.5344
49.4925
49.4499
49.4065
49.3624
49.3176
49.2721
49.226
49.1792
49.1317
49.0837
49.035
48.9857
48.9359
48.8856
48.8347
48.7833
48.7314
48.679
48.6261
48.5729
48.5192
48.4651
48.4106
48.3557
48.3005
48.245
48.1892
48.1331
48.0767
48.0201
47.9632
47.9061
47.8489
47.7914
47.7338
47.6761
47.6183
47.5604
47.5024
47.4443
47.3862
47.3281
47.27
47.2119
47.1539
47.0959
47.0379
46.9801
46.9224
46.8648
46.8073
46.75
46.6929
46.636
46.5793
46.5229
46.4667
46.4107
46.3551
46.2997
46.2446
46.1899
46.1355
46.0815
46.0278
45.9746
45.9217
45.8692
45.8172
45.7656
45.7145
45.6639
45.6137
45.564
45.5148
45.4662
45.418
45.3704
45.3234
45.2769
45.231
45.1857
45.1409
45.0968
45.0533
45.0103
44.968
44.9264
44.8853
44.845
44.8052
44.7662
44.7278
44.6901
44.653
44.6166
44.581
44.546
44.5117
44.4781
44.4452
44.4131
44.3816
44.3508
44.3208
44.2915
44.2629
44.235
44.2078
44.1814
44.1557
44.1307
44.1064
44.0829
44.0601
44.038
44.0166
43.9959
43.976
43.9567
43.9382
43.9204
43.9033
43.8869
43.8712
43.8561
43.8418
43.8282
43.8152
43.803
43.7914
43.7804
43.7702
43.7606
43.7516
43.7433
43.7357
43.7286
43.7222
43.7164
43.7113
43.7067
43.7028
43.6994
43.6966
43.6944
43.6928
43.6917
43.6912
43.6912
43.6918
43.6929
43.6945
43.6967
43.6993
43.7024
43.706
43.7101
43.7147
43.7197
43.7252
43.7311
43.7375
43.7442
43.7514
43.759
43.767
43.7753
43.784
43.7931
43.8026
43.8124
43.8225
43.8329
43.8437
43.8548
43.8661
43.8778
43.8897
43.9019
43.9143
43.927
43.9399
43.9531
43.9664
43.98
43.9938
44.0077
44.0219
44.0362
44.0506
44.0652
44.0799
44.0948
44.1098
44.1249
44.1401
44.1554
44.1707
44.1862
44.2017
44.2172
44.2328
44.2485
44.2641
44.2798
44.2955
44.3112
44.3269
44.3425
44.3582
44.3738
44.3894
44.4049
44.4204
44.4358
44.4511
44.4664
44.4815
44.4966
44.5116
44.5264
44.5412
44.5558
44.5703
44.5847
44.5989
44.6129
44.6268
44.6405
44.6541
44.6675
44.6807
44.6937
44.7065
44.7192
44.7316
44.7438
44.7558
44.7675
44.7791
44.7904
44.8014
44.8123
44.8229
44.8332
44.8433
44.8531
44.8626
44.8719
44.8809
44.8896
44.8981
44.9063
44.9142
44.9218
44.9291
44.9361
44.9428
44.9492
44.9553
44.9611
44.9666
44.9718
44.9766
44.9812
44.9854
44.9893
44.9929
44.9962
44.9991
45.0018
45.0041
45.006
45.0077
45.009
45.01
45.0106
45.011
50.4123
50.4107
50.4073
50.4025
50.3962
50.3887
50.3799
50.3699
50.3588
50.3467
50.3336
50.3194
50.3042
50.2879
50.2707
50.2525
50.2332
50.213
50.1918
50.1696
50.1464
50.1222
50.097
50.0708
50.0437
50.0156
49.9866
49.9567
49.9258
49.894
49.8612
49.8276
49.7931
49.7577
49.7215
49.6844
49.6465
49.6077
49.5682
49.5278
49.4867
49.4447
49.4021
49.3587
49.3146
49.2697
49.2242
49.178
49.1312
49.0837
49.0356
48.9869
48.9377
48.8878
48.8374
48.7865
48.7351
48.6831
48.6307
48.5778
48.5245
48.4708
48.4167
48.3622
48.3073
48.2521
48.1965
48.1407
48.0845
48.0281
47.9715
47.9146
47.8575
47.8002
47.7427
47.6851
47.6274
47.5695
47.5116
47.4535
47.3955
47.3373
47.2792
47.2211
47.163
47.1049
47.0469
46.9889
46.9311
46.8733
46.8157
46.7582
46.7009
46.6438
46.5869
46.5302
46.4737
46.4174
46.3615
46.3058
46.2504
46.1953
46.1406
46.0862
46.0321
45.9785
45.9252
45.8723
45.8198
45.7678
45.7162
45.6651
45.6144
45.5642
45.5145
45.4654
45.4167
45.3685
45.3209
45.2739
45.2274
45.1815
45.1362
45.0914
45.0473
45.0037
44.9608
44.9185
44.8768
44.8358
44.7954
44.7557
44.7167
44.6783
44.6405
44.6035
44.5671
44.5315
44.4965
44.4622
44.4286
44.3957
44.3636
44.3321
44.3014
44.2713
44.242
44.2134
44.1856
44.1584
44.132
44.1063
44.0813
44.0571
44.0335
44.0107
43.9886
43.9673
43.9466
43.9267
43.9074
43.8889
43.8711
43.854
43.8377
43.822
43.807
43.7927
43.7791
43.7661
43.7539
43.7423
43.7314
43.7211
43.7116
43.7026
43.6943
43.6867
43.6797
43.6733
43.6675
43.6624
43.6579
43.6539
43.6506
43.6478
43.6456
43.644
43.643
43.6425
43.6426
43.6431
43.6443
43.6459
43.6481
43.6507
43.6539
43.6575
43.6616
43.6662
43.6713
43.6768
43.6827
43.6891
43.6959
43.7031
43.7107
43.7187
43.727
43.7358
43.7449
43.7544
43.7642
43.7743
43.7848
43.7956
43.8067
43.8181
43.8297
43.8417
43.8539
43.8663
43.879
43.892
43.9051
43.9185
43.9321
43.9459
43.9599
43.974
43.9883
44.0028
44.0174
44.0322
44.047
44.062
44.0772
44.0924
44.1077
44.123
44.1385
44.154
44.1696
44.1852
44.2009
44.2165
44.2322
44.2479
44.2636
44.2793
44.295
44.3107
44.3263
44.3419
44.3575
44.3729
44.3884
44.4037
44.419
44.4341
44.4492
44.4642
44.4791
44.4938
44.5085
44.523
44.5373
44.5515
44.5656
44.5795
44.5933
44.6068
44.6202
44.6334
44.6465
44.6593
44.6719
44.6843
44.6966
44.7086
44.7203
44.7319
44.7432
44.7543
44.7651
44.7757
44.786
44.7961
44.8059
44.8155
44.8247
44.8338
44.8425
44.851
44.8591
44.867
44.8746
44.8819
44.8889
44.8957
44.9021
44.9082
44.914
44.9195
44.9246
44.9295
44.9341
44.9383
44.9422
44.9458
44.9491
44.952
44.9547
44.957
44.9589
44.9606
44.9619
44.9629
44.9635
44.9639
50.3526
50.351
50.3477
50.343
50.3367
50.3292
50.3203
50.3104
50.2993
50.2871
50.2739
50.2597
50.2444
50.2281
50.2108
50.1925
50.1732
50.1529
50.1316
50.1094
50.0861
50.0618
50.0366
50.0104
49.9832
49.9551
49.9261
49.8961
49.8651
49.8333
49.8005
49.7669
49.7323
49.6969
49.6607
49.6235
49.5856
49.5468
49.5072
49.4668
49.4256
49.3837
49.341
49.2976
49.2535
49.2086
49.1631
49.1169
49.07
49.0225
48.9744
48.9257
48.8764
48.8265
48.7761
48.7251
48.6737
48.6217
48.5693
48.5164
48.4631
48.4093
48.3552
48.3006
48.2457
48.1905
48.1349
48.0791
48.0229
47.9665
47.9098
47.8529
47.7958
47.7385
47.681
47.6234
47.5656
47.5077
47.4498
47.3917
47.3336
47.2755
47.2173
47.1592
47.101
47.0429
46.9849
46.9269
46.8691
46.8113
46.7537
46.6962
46.6389
46.5818
46.5248
46.4681
46.4116
46.3554
46.2994
46.2437
46.1883
46.1332
46.0785
46.0241
45.97
45.9163
45.863
45.8102
45.7577
45.7057
45.6541
45.6029
45.5523
45.5021
45.4524
45.4032
45.3545
45.3064
45.2588
45.2117
45.1653
45.1193
45.074
45.0293
44.9851
44.9416
44.8987
44.8564
44.8147
44.7737
44.7333
44.6936
44.6546
44.6162
44.5785
44.5414
44.5051
44.4694
44.4345
44.4002
44.3666
44.3338
44.3016
44.2702
44.2394
44.2094
44.1801
44.1516
44.1237
44.0966
44.0702
44.0445
44.0195
43.9953
43.9718
43.949
43.9269
43.9056
43.8849
43.865
43.8458
43.8273
43.8095
43.7925
43.7761
43.7604