/*--------------------------------*- C++ -*----------------------------------*\
| =========                 |                                                 |
| \\      /  F ield         | OpenFOAM: The Open Source CFD Toolbox           |
|  \\    /   O peration     | Version:  2212                                  |
|   \\  /    A nd           | Website:  www.openfoam.com                      |
|    \\/     M anipulation  |                                                 |
\*---------------------------------------------------------------------------*/
FoamFile
{
    version     2.0;
    format      ascii;
    arch        "LSB;label=32;scalar=64";
    class       volScalarField;
    location    "940";
    object      p_rgh;
}
// * * * * * * * * * * * * * * * * * * * * * * * * * * * * * * * * * * * * * //

dimensions      [1 -1 -2 0 0 0 0];

internalField   nonuniform List<scalar> 
204800
(
50.9559
50.9552
50.9535
50.9509
50.9473
50.9424
50.9362
50.9287
50.9197
50.9095
50.8978
50.8849
50.8708
50.8555
50.839
50.8214
50.8028
50.783
50.7623
50.7404
50.7175
50.6937
50.6687
50.6428
50.6159
50.588
50.5591
50.5293
50.4985
50.4668
50.4341
50.4006
50.3661
50.3308
50.2946
50.2575
50.2196
50.1808
50.1412
50.1008
50.0597
50.0177
49.975
49.9316
49.8874
49.8425
49.797
49.7507
49.7038
49.6562
49.6081
49.5593
49.5099
49.46
49.4095
49.3584
49.3069
49.2548
49.2023
49.1493
49.0959
49.042
48.9878
48.9331
48.8781
48.8227
48.7671
48.7111
48.6548
48.5982
48.5414
48.4844
48.4271
48.3697
48.312
48.2543
48.1964
48.1383
48.0802
48.022
47.9638
47.9055
47.8471
47.7888
47.7305
47.6722
47.614
47.5559
47.4978
47.4399
47.3821
47.3244
47.2669
47.2096
47.1524
47.0955
47.0388
46.9824
46.9262
46.8703
46.8147
46.7594
46.7044
46.6498
46.5956
46.5417
46.4881
46.435
46.3823
46.3301
46.2783
46.2269
46.176
46.1256
46.0756
46.0262
45.9773
45.9289
45.8811
45.8338
45.787
45.7409
45.6953
45.6503
45.6059
45.5621
45.5189
45.4764
45.4345
45.3932
45.3525
45.3126
45.2732
45.2346
45.1966
45.1593
45.1227
45.0868
45.0515
45.017
44.9831
44.95
44.9176
44.8859
44.8549
44.8246
44.795
44.7662
44.738
44.7106
44.6839
44.658
44.6328
44.6082
44.5845
44.5614
44.5391
44.5174
44.4965
44.4763
44.4569
44.4381
44.4201
44.4027
44.3861
44.3702
44.3549
44.3404
44.3265
44.3134
44.3009
44.2891
44.2779
44.2675
44.2577
44.2485
44.24
44.2321
44.2249
44.2183
44.2123
44.2069
44.2022
44.198
44.1945
44.1915
44.1891
44.1873
44.1861
44.1854
44.1853
44.1857
44.1866
44.1881
44.19
44.1925
44.1955
44.1989
44.2029
44.2073
44.2122
44.2175
44.2233
44.2295
44.2361
44.2431
44.2506
44.2584
44.2667
44.2753
44.2842
44.2936
44.3032
44.3132
44.3236
44.3342
44.3452
44.3565
44.368
44.3798
44.3919
44.4043
44.4169
44.4297
44.4427
44.456
44.4695
44.4832
44.4971
44.5111
44.5253
44.5397
44.5542
44.5689
44.5837
44.5986
44.6137
44.6288
44.644
44.6593
44.6747
44.6902
44.7057
44.7212
44.7368
44.7524
44.7681
44.7837
44.7994
44.815
44.8306
44.8463
44.8618
44.8774
44.8929
44.9083
44.9237
44.939
44.9542
44.9694
44.9844
44.9994
45.0142
45.0289
45.0436
45.058
45.0724
45.0866
45.1006
45.1145
45.1282
45.1418
45.1551
45.1683
45.1813
45.1941
45.2068
45.2192
45.2314
45.2433
45.2551
45.2666
45.2779
45.289
45.2998
45.3104
45.3207
45.3308
45.3406
45.3502
45.3594
45.3685
45.3772
45.3856
45.3938
45.4017
45.4093
45.4166
45.4236
45.4303
45.4367
45.4428
45.4486
45.4541
45.4593
45.4642
45.4687
45.473
45.4769
45.4805
45.4837
45.4867
45.4893
45.4916
45.4936
45.4952
45.4966
45.4975
45.4982
45.4985
50.8689
50.8674
50.8645
50.8603
50.8549
50.8484
50.8406
50.8318
50.8218
50.8108
50.7986
50.7853
50.771
50.7555
50.7389
50.7213
50.7027
50.6829
50.6621
50.6403
50.6175
50.5936
50.5687
50.5428
50.516
50.4881
50.4593
50.4295
50.3988
50.3671
50.3345
50.301
50.2666
50.2313
50.1952
50.1581
50.1203
50.0816
50.0421
50.0018
49.9607
49.9188
49.8762
49.8328
49.7888
49.744
49.6985
49.6523
49.6055
49.558
49.5099
49.4612
49.4119
49.3621
49.3117
49.2607
49.2093
49.1573
49.1049
49.052
48.9986
48.9449
48.8907
48.8362
48.7813
48.726
48.6704
48.6145
48.5584
48.5019
48.4452
48.3883
48.3311
48.2738
48.2163
48.1586
48.1008
48.0429
47.9848
47.9268
47.8686
47.8104
47.7522
47.694
47.6358
47.5776
47.5195
47.4615
47.4036
47.3457
47.288
47.2304
47.173
47.1158
47.0588
47.002
46.9454
46.8891
46.833
46.7772
46.7217
46.6665
46.6116
46.5571
46.5029
46.4491
46.3957
46.3427
46.2901
46.238
46.1862
46.1349
46.0841
46.0338
45.984
45.9346
45.8858
45.8375
45.7898
45.7426
45.6959
45.6498
45.6043
45.5594
45.5151
45.4714
45.4283
45.3858
45.344
45.3028
45.2622
45.2223
45.1831
45.1445
45.1066
45.0694
45.0328
44.997
44.9618
44.9273
44.8935
44.8605
44.8281
44.7965
44.7655
44.7353
44.7058
44.677
44.6489
44.6216
44.5949
44.569
44.5438
44.5194
44.4956
44.4726
44.4503
44.4287
44.4079
44.3877
44.3683
44.3496
44.3316
44.3143
44.2977
44.2818
44.2666
44.252
44.2382
44.2251
44.2126
44.2008
44.1897
44.1793
44.1695
44.1603
44.1518
44.144
44.1368
44.1302
44.1242
44.1189
44.1141
44.11
44.1064
44.1035
44.1011
44.0993
44.0981
44.0974
44.0972
44.0976
44.0986
44.1
44.102
44.1045
44.1074
44.1109
44.1148
44.1193
44.1241
44.1294
44.1352
44.1414
44.148
44.155
44.1625
44.1703
44.1785
44.1871
44.1961
44.2054
44.215
44.225
44.2354
44.246
44.2569
44.2682
44.2797
44.2915
44.3036
44.3159
44.3285
44.3413
44.3543
44.3676
44.381
44.3947
44.4085
44.4226
44.4367
44.4511
44.4656
44.4802
44.495
44.5099
44.5249
44.54
44.5552
44.5705
44.5859
44.6013
44.6168
44.6323
44.6478
44.6634
44.679
44.6947
44.7103
44.7259
44.7415
44.7571
44.7727
44.7882
44.8036
44.8191
44.8344
44.8497
44.8649
44.88
44.895
44.91
44.9248
44.9395
44.954
44.9685
44.9828
44.997
45.011
45.0248
45.0385
45.0521
45.0654
45.0786
45.0916
45.1044
45.1169
45.1293
45.1415
45.1535
45.1652
45.1767
45.188
45.199
45.2098
45.2204
45.2307
45.2408
45.2506
45.2601
45.2694
45.2784
45.2871
45.2955
45.3037
45.3115
45.3191
45.3264
45.3334
45.3401
45.3465
45.3526
45.3584
45.3639
45.369
45.3739
45.3784
45.3827
45.3866
45.3902
45.3934
45.3964
45.399
45.4013
45.4033
45.4049
45.4062
45.4072
45.4079
45.4082
50.8504
50.849
50.8461
50.8419
50.8365
50.8299
50.8222
50.8133
50.8034
50.7923
50.7801
50.7668
50.7524
50.7369
50.7203
50.7027
50.684
50.6642
50.6434
50.6216
50.5987
50.5748
50.55
50.5241
50.4972
50.4693
50.4405
50.4107
50.38
50.3483
50.3157
50.2822
50.2478
50.2125
50.1763
50.1393
50.1015
50.0628
50.0233
49.983
49.9419
49.9
49.8574
49.814
49.7699
49.7251
49.6796
49.6335
49.5866
49.5392
49.4911
49.4424
49.3931
49.3432
49.2928
49.2419
49.1904
49.1385
49.0861
49.0332
48.9799
48.9261
48.8719
48.8174
48.7625
48.7072
48.6517
48.5958
48.5396
48.4831
48.4264
48.3695
48.3124
48.255
48.1975
48.1398
48.082
48.0241
47.9661
47.908
47.8499
47.7917
47.7335
47.6753
47.6171
47.5589
47.5008
47.4428
47.3849
47.3271
47.2693
47.2118
47.1544
47.0972
47.0402
46.9833
46.9268
46.8704
46.8144
46.7586
46.7031
46.6479
46.593
46.5385
46.4844
46.4306
46.3772
46.3242
46.2716
46.2194
46.1677
46.1164
46.0656
46.0153
45.9655
45.9161
45.8673
45.819
45.7713
45.7241
45.6774
45.6314
45.5859
45.541
45.4967
45.453
45.4099
45.3674
45.3256
45.2844
45.2438
45.2039
45.1647
45.1261
45.0882
45.051
45.0145
44.9786
44.9434
44.909
44.8752
44.8421
44.8098
44.7781
44.7472
44.717
44.6875
44.6587
44.6306
44.6033
44.5766
44.5507
44.5256
44.5011
44.4774
44.4544
44.4321
44.4105
44.3896
44.3695
44.3501
44.3314
44.3134
44.2961
44.2795
44.2636
44.2484
44.2339
44.2201
44.2069
44.1945
44.1827
44.1716
44.1611
44.1513
44.1422
44.1337
44.1259
44.1187
44.1121
44.1061
44.1008
44.096
44.0919
44.0884
44.0854
44.083
44.0812
44.08
44.0793
44.0792
44.0796
44.0805
44.082
44.084
44.0865
44.0894
44.0929
44.0968
44.1012
44.1061
44.1114
44.1172
44.1234
44.13
44.1371
44.1445
44.1523
44.1606
44.1691
44.1781
44.1874
44.1971
44.2071
44.2174
44.228
44.239
44.2502
44.2617
44.2735
44.2856
44.2979
44.3105
44.3233
44.3364
44.3496
44.3631
44.3767
44.3906
44.4046
44.4188
44.4332
44.4477
44.4623
44.4771
44.492
44.507
44.5221
44.5373
44.5526
44.5679
44.5833
44.5988
44.6143
44.6299
44.6455
44.6611
44.6767
44.6924
44.708
44.7236
44.7392
44.7547
44.7702
44.7857
44.8011
44.8165
44.8318
44.847
44.8621
44.8771
44.892
44.9068
44.9215
44.9361
44.9506
44.9649
44.979
44.993
45.0069
45.0206
45.0341
45.0475
45.0606
45.0736
45.0864
45.099
45.1114
45.1236
45.1355
45.1473
45.1588
45.1701
45.1811
45.1919
45.2025
45.2128
45.2228
45.2326
45.2421
45.2514
45.2604
45.2691
45.2776
45.2857
45.2936
45.3012
45.3085
45.3155
45.3221
45.3285
45.3346
45.3404
45.3459
45.3511
45.3559
45.3605
45.3647
45.3686
45.3722
45.3755
45.3784
45.381
45.3833
45.3853
45.3869
45.3882
45.3892
45.3899
45.3902
50.7727
50.771
50.7676
50.7628
50.7565
50.7491
50.7406
50.731
50.7204
50.7088
50.6962
50.6826
50.668
50.6523
50.6356
50.6178
50.5991
50.5793
50.5584
50.5366
50.5137
50.4898
50.4649
50.439
50.4121
50.3843
50.3555
50.3257
50.295
50.2634
50.2308
50.1973
50.1629
50.1277
50.0916
50.0546
50.0168
49.9781
49.9387
49.8984
49.8574
49.8156
49.773
49.7297
49.6856
49.6409
49.5955
49.5493
49.5026
49.4552
49.4071
49.3585
49.3093
49.2595
49.2091
49.1583
49.1069
49.055
49.0026
48.9498
48.8965
48.8429
48.7888
48.7343
48.6795
48.6243
48.5688
48.5129
48.4568
48.4005
48.3438
48.287
48.2299
48.1726
48.1152
48.0576
47.9999
47.942
47.8841
47.8261
47.768
47.7099
47.6518
47.5937
47.5355
47.4775
47.4194
47.3615
47.3036
47.2459
47.1882
47.1308
47.0734
47.0163
46.9593
46.9026
46.8461
46.7898
46.7339
46.6781
46.6227
46.5676
46.5128
46.4584
46.4043
46.3506
46.2972
46.2443
46.1918
46.1397
46.088
46.0368
45.9861
45.9358
45.8861
45.8368
45.7881
45.7399
45.6922
45.645
45.5985
45.5525
45.507
45.4622
45.4179
45.3743
45.3313
45.2889
45.2471
45.206
45.1655
45.1256
45.0864
45.0479
45.0101
44.9729
44.9364
44.9006
44.8655
44.8311
44.7974
44.7643
44.732
44.7004
44.6695
44.6394
44.6099
44.5812
44.5531
44.5258
44.4993
44.4734
44.4483
44.4238
44.4001
44.3772
44.3549
44.3334
44.3126
44.2924
44.2731
44.2544
44.2364
44.2191
44.2026
44.1867
44.1715
44.157
44.1433
44.1301
44.1177
44.106
44.0949
44.0844
44.0747
44.0656
44.0571
44.0493
44.0421
44.0355
44.0296
44.0242
44.0195
44.0154
44.0119
44.0089
44.0066
44.0048
44.0035
44.0029
44.0027
44.0031
44.0041
44.0056
44.0075
44.01
44.013
44.0165
44.0204
44.0248
44.0297
44.035
44.0408
44.047
44.0536
44.0606
44.0681
44.0759
44.0841
44.0927
44.1016
44.1109
44.1206
44.1306
44.1409
44.1515
44.1625
44.1737
44.1852
44.197
44.2091
44.2214
44.2339
44.2467
44.2598
44.273
44.2865
44.3001
44.3139
44.3279
44.3421
44.3565
44.371
44.3856
44.4003
44.4152
44.4302
44.4453
44.4605
44.4757
44.4911
44.5065
44.522
44.5375
44.553
44.5686
44.5842
44.5998
44.6154
44.631
44.6466
44.6621
44.6777
44.6932
44.7086
44.724
44.7394
44.7546
44.7698
44.7849
44.7999
44.8148
44.8296
44.8443
44.8588
44.8733
44.8876
44.9017
44.9157
44.9296
44.9432
44.9567
44.9701
44.9832
44.9962
45.009
45.0216
45.0339
45.0461
45.058
45.0697
45.0812
45.0925
45.1035
45.1143
45.1249
45.1352
45.1452
45.155
45.1645
45.1738
45.1827
45.1915
45.1999
45.208
45.2159
45.2235
45.2307
45.2377
45.2444
45.2508
45.2569
45.2627
45.2681
45.2733
45.2782
45.2827
45.2869
45.2908
45.2944
45.2977
45.3006
45.3032
45.3055
45.3075
45.3091
45.3104
45.3114
45.3121
45.3124
50.7422
50.7406
50.7373
50.7325
50.7263
50.719
50.7105
50.701
50.6904
50.6788
50.6662
50.6525
50.6378
50.6221
50.6054
50.5876
50.5688
50.5489
50.528
50.5062
50.4832
50.4593
50.4344
50.4085
50.3816
50.3537
50.3249
50.2951
50.2644
50.2327
50.2002
50.1667
50.1323
50.097
50.0609
50.0239
49.9861
49.9475
49.908
49.8677
49.8267
49.7849
49.7423
49.699
49.6549
49.6102
49.5647
49.5186
49.4718
49.4244
49.3764
49.3278
49.2785
49.2287
49.1784
49.1275
49.0761
49.0243
48.9719
48.9191
48.8658
48.8121
48.758
48.7036
48.6487
48.5935
48.538
48.4822
48.4261
48.3697
48.3131
48.2562
48.1992
48.1419
48.0845
48.0269
47.9692
47.9113
47.8534
47.7954
47.7373
47.6792
47.6211
47.5629
47.5048
47.4468
47.3887
47.3308
47.2729
47.2152
47.1575
47.1001
47.0427
46.9856
46.9287
46.8719
46.8154
46.7592
46.7032
46.6475
46.5921
46.537
46.4822
46.4277
46.3737
46.3199
46.2666
46.2137
46.1612
46.1091
46.0574
46.0062
45.9555
45.9053
45.8555
45.8063
45.7575
45.7093
45.6616
45.6145
45.5679
45.5219
45.4765
45.4317
45.3874
45.3438
45.3008
45.2584
45.2166
45.1755
45.135
45.0952
45.056
45.0175
44.9797
44.9425
44.906
44.8702
44.8351
44.8007
44.767
44.734
44.7017
44.6701
44.6392
44.6091
44.5796
44.5509
44.5229
44.4956
44.469
44.4432
44.418
44.3936
44.3699
44.347
44.3247
44.3032
44.2824
44.2623
44.2429
44.2242
44.2063
44.189
44.1725
44.1566
44.1414
44.127
44.1132
44.1001
44.0877
44.0759
44.0648
44.0544
44.0447
44.0356
44.0271
44.0193
44.0121
44.0055
43.9996
43.9943
43.9896
43.9855
43.9819
43.979
43.9767
43.9749
43.9737
43.973
43.9729
43.9733
43.9743
43.9757
43.9777
43.9802
43.9832
43.9867
43.9906
43.995
43.9999
44.0052
44.011
44.0172
44.0238
44.0309
44.0383
44.0462
44.0544
44.063
44.0719
44.0813
44.0909
44.1009
44.1112
44.1219
44.1328
44.144
44.1556
44.1674
44.1794
44.1917
44.2043
44.2171
44.2301
44.2434
44.2568
44.2705
44.2843
44.2983
44.3125
44.3269
44.3414
44.356
44.3708
44.3856
44.4006
44.4157
44.4309
44.4462
44.4615
44.4769
44.4924
44.5079
44.5235
44.539
44.5546
44.5702
44.5858
44.6015
44.617
44.6326
44.6481
44.6636
44.6791
44.6945
44.7098
44.7251
44.7403
44.7554
44.7704
44.7853
44.8001
44.8148
44.8293
44.8438
44.858
44.8722
44.8862
44.9
44.9137
44.9272
44.9406
44.9537
44.9667
44.9795
44.992
45.0044
45.0166
45.0285
45.0402
45.0517
45.063
45.074
45.0848
45.0954
45.1057
45.1157
45.1255
45.135
45.1442
45.1532
45.1619
45.1704
45.1785
45.1864
45.1939
45.2012
45.2082
45.2149
45.2213
45.2274
45.2332
45.2386
45.2438
45.2486
45.2532
45.2574
45.2613
45.2649
45.2681
45.2711
45.2737
45.276
45.278
45.2796
45.2809
45.2819
45.2826
45.2829
50.6714
50.6697
50.6662
50.6611
50.6546
50.647
50.6381
50.6282
50.6172
50.6053
50.5924
50.5785
50.5636
50.5478
50.5309
50.513
50.4941
50.4742
50.4532
50.4313
50.4083
50.3844
50.3595
50.3335
50.3066
50.2788
50.2499
50.2201
50.1894
50.1578
50.1252
50.0917
50.0574
50.0221
49.986
49.949
49.9112
49.8726
49.8332
49.7929
49.7519
49.7101
49.6676
49.6243
49.5803
49.5355
49.4901
49.444
49.3973
49.3499
49.3019
49.2533
49.2041
49.1544
49.1041
49.0532
49.0019
48.95
48.8977
48.8449
48.7917
48.7381
48.684
48.6296
48.5748
48.5197
48.4642
48.4084
48.3524
48.296
48.2394
48.1826
48.1256
48.0684
48.011
47.9535
47.8958
47.838
47.7801
47.7221
47.6641
47.6061
47.548
47.4899
47.4318
47.3738
47.3158
47.2579
47.2001
47.1424
47.0848
47.0274
46.9701
46.9131
46.8562
46.7995
46.743
46.6868
46.6309
46.5752
46.5199
46.4648
46.4101
46.3557
46.3016
46.248
46.1947
46.1418
46.0894
46.0373
45.9857
45.9346
45.8839
45.8337
45.784
45.7348
45.6861
45.6379
45.5903
45.5432
45.4967
45.4507
45.4053
45.3606
45.3164
45.2728
45.2298
45.1874
45.1457
45.1046
45.0642
45.0244
44.9853
44.9468
44.909
44.8719
44.8355
44.7997
44.7646
44.7303
44.6966
44.6636
44.6314
44.5998
44.569
44.5388
44.5094
44.4807
44.4527
44.4255
44.3989
44.3731
44.348
44.3236
44.3
44.2771
44.2548
44.2333
44.2126
44.1925
44.1731
44.1545
44.1366
44.1193
44.1028
44.087
44.0718
44.0574
44.0436
44.0306
44.0182
44.0064
43.9954
43.985
43.9752
43.9662
43.9577
43.9499
43.9427
43.9362
43.9303
43.925
43.9203
43.9162
43.9127
43.9098
43.9074
43.9057
43.9045
43.9038
43.9037
43.9041
43.9051
43.9066
43.9086
43.9111
43.9141
43.9176
43.9215
43.9259
43.9308
43.9362
43.9419
43.9482
43.9548
43.9618
43.9693
43.9771
43.9853
43.9939
44.0029
44.0122
44.0219
44.0319
44.0422
44.0528
44.0638
44.075
44.0865
44.0983
44.1104
44.1227
44.1353
44.1481
44.1611
44.1743
44.1878
44.2014
44.2153
44.2293
44.2434
44.2578
44.2723
44.2869
44.3017
44.3165
44.3315
44.3466
44.3618
44.377
44.3924
44.4078
44.4232
44.4387
44.4543
44.4698
44.4854
44.501
44.5166
44.5322
44.5478
44.5634
44.5789
44.5944
44.6098
44.6252
44.6405
44.6558
44.671
44.6861
44.7011
44.716
44.7307
44.7454
44.76
44.7744
44.7887
44.8028
44.8168
44.8306
44.8443
44.8578
44.8711
44.8843
44.8972
44.91
44.9226
44.9349
44.9471
44.959
44.9707
44.9822
44.9935
45.0045
45.0153
45.0258
45.0361
45.0461
45.0559
45.0654
45.0747
45.0836
45.0923
45.1008
45.1089
45.1168
45.1243
45.1316
45.1386
45.1453
45.1517
45.1577
45.1635
45.169
45.1741
45.179
45.1835
45.1877
45.1916
45.1952
45.1985
45.2014
45.204
45.2063
45.2083
45.2099
45.2112
45.2122
45.2129
45.2132
50.633
50.6313
50.6278
50.6229
50.6165
50.6089
50.6001
50.5903
50.5794
50.5675
50.5546
50.5407
50.5258
50.5098
50.4929
50.475
50.456
50.436
50.4151
50.3931
50.3701
50.3461
50.3211
50.2952
50.2682
50.2403
50.2115
50.1817
50.1509
50.1193
50.0867
50.0532
50.0188
49.9835
49.9474
49.9104
49.8726
49.834
49.7945
49.7542
49.7132
49.6714
49.6288
49.5855
49.5415
49.4968
49.4514
49.4053
49.3585
49.3111
49.2631
49.2145
49.1653
49.1156
49.0652
49.0144
48.963
48.9112
48.8589
48.8061
48.7528
48.6992
48.6451
48.5907
48.5359
48.4807
48.4253
48.3695
48.3134
48.2571
48.2005
48.1437
48.0866
48.0294
47.972
47.9145
47.8568
47.799
47.7411
47.6831
47.6251
47.5671
47.509
47.4509
47.3928
47.3348
47.2768
47.2189
47.1611
47.1034
47.0458
46.9884
46.9311
46.874
46.8171
46.7604
46.704
46.6478
46.5918
46.5362
46.4808
46.4258
46.371
46.3166
46.2626
46.2089
46.1557
46.1028
46.0503
45.9983
45.9467
45.8955
45.8449
45.7947
45.745
45.6958
45.6471
45.5989
45.5513
45.5042
45.4577
45.4117
45.3664
45.3216
45.2774
45.2338
45.1909
45.1485
45.1068
45.0657
45.0253
44.9855
44.9464
44.9079
44.8701
44.833
44.7966
44.7608
44.7258
44.6914
44.6578
44.6248
44.5925
44.561
44.5302
44.5
44.4706
44.442
44.414
44.3867
44.3602
44.3344
44.3093
44.285
44.2613
44.2384
44.2162
44.1947
44.1739
44.1539
44.1345
44.1159
44.098
44.0808
44.0643
44.0484
44.0333
44.0189
44.0051
43.9921
43.9797
43.968
43.9569
43.9465
43.9368
43.9278
43.9193
43.9115
43.9044
43.8979
43.892
43.8867
43.882
43.8779
43.8744
43.8715
43.8692
43.8674
43.8662
43.8656
43.8655
43.866
43.8669
43.8684
43.8704
43.873
43.876
43.8795
43.8834
43.8879
43.8928
43.8981
43.9039
43.9101
43.9168
43.9238
43.9313
43.9391
43.9474
43.956
43.9649
43.9743
43.9839
43.9939
44.0043
44.0149
44.0259
44.0371
44.0486
44.0605
44.0725
44.0849
44.0974
44.1102
44.1233
44.1365
44.15
44.1636
44.1775
44.1915
44.2057
44.22
44.2345
44.2492
44.2639
44.2788
44.2938
44.3089
44.3241
44.3394
44.3547
44.3701
44.3856
44.4011
44.4166
44.4322
44.4478
44.4634
44.479
44.4946
44.5102
44.5257
44.5413
44.5568
44.5722
44.5876
44.6029
44.6182
44.6334
44.6485
44.6635
44.6784
44.6932
44.7078
44.7224
44.7368
44.7511
44.7652
44.7792
44.7931
44.8067
44.8203
44.8336
44.8467
44.8597
44.8725
44.885
44.8974
44.9095
44.9215
44.9332
44.9447
44.9559
44.967
44.9777
44.9883
44.9986
45.0086
45.0184
45.0279
45.0371
45.0461
45.0548
45.0632
45.0714
45.0792
45.0868
45.0941
45.1011
45.1078
45.1141
45.1202
45.126
45.1315
45.1366
45.1415
45.146
45.1502
45.1541
45.1577
45.161
45.1639
45.1665
45.1688
45.1708
45.1724
45.1737
45.1747
45.1754
45.1757
50.5672
50.5655
50.562
50.557
50.5505
50.5428
50.5338
50.5238
50.5127
50.5006
50.4875
50.4735
50.4584
50.4424
50.4253
50.4073
50.3882
50.3682
50.3471
50.3251
50.3021
50.278
50.253
50.227
50.2001
50.1721
50.1433
50.1134
50.0827
50.051
50.0184
49.9849
49.9505
49.9152
49.8791
49.8421
49.8043
49.7657
49.7262
49.686
49.6449
49.6031
49.5606
49.5173
49.4733
49.4286
49.3832
49.3371
49.2903
49.243
49.195
49.1464
49.0972
49.0474
48.9971
48.9463
48.895
48.8431
48.7908
48.738
48.6848
48.6312
48.5772
48.5228
48.468
48.4128
48.3574
48.3016
48.2456
48.1893
48.1327
48.0759
48.0189
47.9617
47.9043
47.8468
47.7891
47.7314
47.6735
47.6156
47.5576
47.4995
47.4415
47.3834
47.3254
47.2673
47.2094
47.1515
47.0937
47.0361
46.9785
46.9211
46.8639
46.8068
46.7499
46.6933
46.6368
46.5807
46.5247
46.4691
46.4138
46.3587
46.304
46.2497
46.1957
46.142
46.0888
46.0359
45.9835
45.9315
45.8799
45.8288
45.7782
45.728
45.6783
45.6292
45.5805
45.5324
45.4848
45.4377
45.3912
45.3453
45.3
45.2552
45.2111
45.1675
45.1246
45.0822
45.0406
44.9995
44.9591
44.9194
44.8803
44.8418
44.8041
44.767
44.7306
44.6949
44.6598
44.6255
44.5919
44.5589
44.5267
44.4952
44.4644
44.4343
44.4049
44.3763
44.3483
44.3211
44.2946
44.2688
44.2438
44.2194
44.1958
44.1729
44.1507
44.1293
44.1085
44.0885
44.0692
44.0506
44.0327
44.0155
43.999
43.9832
43.9681
43.9537
43.94
43.9269
43.9146
43.9029
43.8919
43.8815
43.8718
43.8627
43.8543
43.8466
43.8394
43.8329
43.8271
43.8218
43.8171
43.8131
43.8096
43.8067
43.8044
43.8027
43.8015
43.8009
43.8008
43.8012
43.8022
43.8037
43.8058
43.8083
43.8113
43.8148
43.8188
43.8233
43.8282
43.8335
43.8393
43.8456
43.8522
43.8593
43.8668
43.8746
43.8829
43.8915
43.9005
43.9098
43.9195
43.9295
43.9398
43.9505
43.9614
43.9727
43.9842
43.9961
44.0081
44.0205
44.033
44.0459
44.0589
44.0722
44.0856
44.0993
44.1131
44.1272
44.1413
44.1557
44.1702
44.1848
44.1996
44.2145
44.2295
44.2446
44.2597
44.275
44.2904
44.3058
44.3212
44.3367
44.3523
44.3679
44.3835
44.3991
44.4147
44.4303
44.4459
44.4614
44.4769
44.4924
44.5079
44.5233
44.5386
44.5539
44.569
44.5841
44.5991
44.614
44.6288
44.6435
44.658
44.6725
44.6867
44.7009
44.7149
44.7287
44.7424
44.7559
44.7692
44.7823
44.7953
44.8081
44.8206
44.833
44.8451
44.8571
44.8688
44.8803
44.8915
44.9025
44.9133
44.9239
44.9341
44.9442
44.954
44.9635
44.9727
44.9817
44.9904
44.9988
45.0069
45.0148
45.0224
45.0296
45.0366
45.0433
45.0497
45.0558
45.0615
45.067
45.0722
45.077
45.0815
45.0857
45.0896
45.0932
45.0965
45.0994
45.102
45.1043
45.1063
45.1079
45.1092
45.1102
45.1109
45.1112
50.5234
50.5218
50.5183
50.5135
50.5071
50.4994
50.4906
50.4806
50.4696
50.4575
50.4445
50.4304
50.4153
50.3992
50.3821
50.3641
50.345
50.3249
50.3038
50.2817
50.2586
50.2345
50.2095
50.1834
50.1564
50.1285
50.0996
50.0697
50.0389
50.0072
49.9746
49.941
49.9066
49.8713
49.8352
49.7982
49.7603
49.7217
49.6822
49.6419
49.6009
49.559
49.5165
49.4732
49.4291
49.3844
49.339
49.2929
49.2461
49.1987
49.1507
49.1021
49.0529
49.0031
48.9528
48.9019
48.8506
48.7987
48.7464
48.6936
48.6404
48.5867
48.5327
48.4782
48.4234
48.3683
48.3128
48.2571
48.201
48.1447
48.0881
48.0313
47.9742
47.917
47.8596
47.8021
47.7444
47.6866
47.6288
47.5708
47.5128
47.4547
47.3967
47.3386
47.2805
47.2225
47.1646
47.1067
47.0489
46.9912
46.9336
46.8762
46.8189
46.7619
46.705
46.6483
46.5919
46.5357
46.4798
46.4241
46.3688
46.3138
46.259
46.2047
46.1507
46.097
46.0438
45.9909
45.9385
45.8865
45.8349
45.7838
45.7331
45.683
45.6333
45.5841
45.5354
45.4873
45.4397
45.3927
45.3462
45.3003
45.2549
45.2102
45.166
45.1225
45.0795
45.0372
44.9955
44.9545
44.9141
44.8743
44.8352
44.7968
44.7591
44.722
44.6856
44.6499
44.6149
44.5805
44.5469
44.514
44.4818
44.4503
44.4195
44.3894
44.36
44.3314
44.3034
44.2762
44.2498
44.224
44.1989
44.1746
44.151
44.1281
44.106
44.0845
44.0638
44.0438
44.0245
44.0059
43.988
43.9708
43.9543
43.9386
43.9235
43.9091
43.8954
43.8824
43.87
43.8583
43.8473
43.837
43.8273
43.8183
43.8099
43.8021
43.795
43.7885
43.7827
43.7774
43.7728
43.7687
43.7653
43.7624
43.7601
43.7584
43.7572
43.7566
43.7566
43.7571
43.7581
43.7596
43.7616
43.7642
43.7672
43.7707
43.7747
43.7792
43.7841
43.7895
43.7953
43.8016
43.8083
43.8153
43.8228
43.8307
43.839
43.8476
43.8566
43.866
43.8756
43.8857
43.896
43.9067
43.9177
43.9289
43.9405
43.9523
43.9644
43.9768
43.9894
44.0022
44.0152
44.0285
44.042
44.0557
44.0695
44.0836
44.0978
44.1121
44.1266
44.1413
44.1561
44.171
44.186
44.2011
44.2163
44.2316
44.2469
44.2623
44.2778
44.2933
44.3089
44.3245
44.3401
44.3557
44.3713
44.3869
44.4025
44.4181
44.4336
44.4491
44.4646
44.48
44.4953
44.5106
44.5257
44.5408
44.5558
44.5707
44.5855
44.6002
44.6148
44.6292
44.6435
44.6576
44.6716
44.6855
44.6992
44.7127
44.726
44.7391
44.7521
44.7649
44.7774
44.7898
44.802
44.8139
44.8256
44.8371
44.8484
44.8594
44.8702
44.8807
44.891
44.901
44.9108
44.9203
44.9296
44.9385
44.9472
44.9557
44.9638
44.9717
44.9792
44.9865
44.9935
45.0002
45.0066
45.0126
45.0184
45.0239
45.029
45.0339
45.0384
45.0426
45.0465
45.0501
45.0534
45.0563
45.0589
45.0612
45.0632
45.0648
45.0661
45.0671
45.0678
45.0681
50.4612
50.4596
50.4561
50.4513
50.4449
50.4372
50.4283
50.4183
50.4072
50.395
50.3819
50.3677
50.3525
50.3363
50.3192
50.301
50.2818
50.2617
50.2405
50.2183
50.1952
50.1711
50.146
50.1199
50.0929
50.0649
50.0359
50.006
49.9752
49.9435
49.9108
49.8773
49.8428
49.8075
49.7713
49.7343
49.6965
49.6578
49.6183
49.578
49.537
49.4951
49.4525
49.4092
49.3652
49.3204
49.275
49.2289
49.1821
49.1347
49.0867
49.0381
48.9889
48.9391
48.8888
48.8379
48.7866
48.7347
48.6824
48.6296
48.5764
48.5227
48.4686
48.4142
48.3594
48.3043
48.2488
48.193
48.137
48.0806
48.024
47.9672
47.9102
47.853
47.7956
47.7381
47.6804
47.6226
47.5647
47.5068
47.4488
47.3907
47.3327
47.2746
47.2165
47.1585
47.1006
47.0427
46.9849
46.9272
46.8696
46.8122
46.755
46.6979
46.641
46.5844
46.528
46.4718
46.4159
46.3602
46.3049
46.2499
46.1952
46.1408
46.0868
46.0332
45.9799
45.9271
45.8747
45.8227
45.7711
45.72
45.6694
45.6192
45.5695
45.5204
45.4717
45.4236
45.376
45.329
45.2825
45.2366
45.1913
45.1466
45.1024
45.0589
45.016
44.9737
44.932
44.891
44.8506
44.8109
44.7718
44.7334
44.6957
44.6586
44.6222
44.5865
44.5515
44.5172
44.4836
44.4507
44.4185
44.387
44.3563
44.3262
44.2969
44.2682
44.2403
44.2131
44.1867
44.1609
44.1359
44.1116
44.088
44.0652
44.043
44.0216
44.0009
43.9809
43.9616
43.9431
43.9252
43.908
43.8916
43.8758
43.8608
43.8464
43.8327
43.8197
43.8074
43.7957
43.7848
43.7744
43.7648
43.7558
43.7474
43.7397
43.7326
43.7261
43.7203
43.715
43.7104
43.7064
43.703
43.7001
43.6979
43.6962
43.695
43.6944
43.6944
43.6949
43.6959
43.6975
43.6995
43.7021
43.7052
43.7087
43.7127
43.7172
43.7222
43.7276
43.7334
43.7397
43.7464
43.7535
43.761
43.7689
43.7771
43.7858
43.7948
43.8042
43.8139
43.8239
43.8343
43.845
43.856
43.8672
43.8788
43.8907
43.9028
43.9151
43.9277
43.9406
43.9536
43.9669
43.9804
43.9941
44.008
44.022
44.0362
44.0506
44.0651
44.0798
44.0946
44.1095
44.1245
44.1396
44.1548
44.1701
44.1855
44.2009
44.2164
44.2319
44.2475
44.2631
44.2787
44.2943
44.3099
44.3255
44.3411
44.3567
44.3722
44.3878
44.4032
44.4186
44.434
44.4492
44.4644
44.4795
44.4945
44.5094
44.5242
44.5389
44.5535
44.5679
44.5822
44.5963
44.6103
44.6242
44.6379
44.6514
44.6647
44.6779
44.6908
44.7036
44.7162
44.7285
44.7407
44.7526
44.7643
44.7758
44.7871
44.7981
44.8089
44.8195
44.8297
44.8398
44.8496
44.8591
44.8683
44.8773
44.886
44.8944
44.9026
44.9104
44.918
44.9253
44.9322
44.9389
44.9453
44.9514
44.9572
44.9626
44.9678
44.9726
44.9772
44.9814
44.9853
44.9889
44.9921
44.9951
44.9977
45
45.0019
45.0036
45.0049
45.0059
45.0065
45.0069
50.4139
50.4123
50.409
50.4042
50.3979
50.3904
50.3815
50.3716
50.3605
50.3484
50.3353
50.3211
50.3059
50.2897
50.2725
50.2543
50.2351
50.2149
50.1937
50.1715
50.1483
50.1241
50.0989
50.0728
50.0457
50.0177
49.9887
49.9588
49.9279
49.8961
49.8634
49.8299
49.7954
49.76
49.7238
49.6868
49.6489
49.6102
49.5706
49.5303
49.4892
49.4474
49.4048
49.3614
49.3173
49.2725
49.2271
49.1809
49.1342
49.0867
49.0387
48.99
48.9408
48.891
48.8406
48.7898
48.7384
48.6865
48.6341
48.5813
48.528
48.4744
48.4203
48.3658
48.311
48.2558
48.2003
48.1445
48.0884
48.0321
47.9754
47.9186
47.8616
47.8043
47.7469
47.6893
47.6316
47.5738
47.5159
47.458
47.3999
47.3418
47.2838
47.2257
47.1676
47.1095
47.0516
46.9937
46.9358
46.8781
46.8206
46.7631
46.7059
46.6488
46.5919
46.5352
46.4788
46.4226
46.3666
46.311
46.2556
46.2006
46.1459
46.0915
46.0375
45.9838
45.9306
45.8777
45.8253
45.7733
45.7217
45.6706
45.6199
45.5698
45.5201
45.4709
45.4223
45.3741
45.3265
45.2795
45.233
45.1871
45.1418
45.097
45.0529
45.0094
44.9664
44.9241
44.8825
44.8414
44.8011
44.7613
44.7223
44.6839
44.6461
44.6091
44.5727
44.537
44.502
44.4677
44.4341
44.4012
44.369
44.3376
44.3068
44.2767
44.2474
44.2188
44.1909
44.1637
44.1373
44.1115
44.0865
44.0622
44.0387
44.0158
43.9937
43.9723
43.9516
43.9316
43.9123
43.8938
43.876
43.8588
43.8424
43.8266
43.8116
43.7972
43.7836
43.7706
43.7583
43.7467
43.7357
43.7254
43.7158
43.7068
43.6984
43.6907
43.6836
43.6772
43.6714
43.6662
43.6616
43.6576
43.6542
43.6513
43.6491
43.6474
43.6463
43.6457
43.6457
43.6462
43.6473
43.6489
43.651
43.6535
43.6566
43.6602
43.6642
43.6687
43.6737
43.6791
43.685
43.6913
43.698
43.7051
43.7126
43.7206
43.7289
43.7375
43.7466
43.756
43.7657
43.7758
43.7861
43.7969
43.8079
43.8192
43.8308
43.8426
43.8547
43.8671
43.8798
43.8926
43.9057
43.919
43.9325
43.9462
43.9601
43.9742
43.9884
44.0028
44.0173
44.032
44.0468
44.0617
44.0768
44.0919
44.1071
44.1224
44.1378
44.1533
44.1687
44.1843
44.1999
44.2155
44.2311
44.2467
44.2624
44.278
44.2936
44.3092
44.3248
44.3403
44.3558
44.3712
44.3865
44.4018
44.417
44.4321
44.4471
44.4621
44.4769
44.4916
44.5061
44.5206
44.5349
44.549
44.563
44.5769
44.5906
44.6041
44.6174
44.6306
44.6436
44.6564
44.6689
44.6813
44.6935
44.7054
44.7171
44.7286
44.7399
44.7509
44.7617
44.7723
44.7826
44.7926
44.8024
44.8119
44.8212
44.8301
44.8388
44.8473
44.8554
44.8633
44.8709
44.8781
44.8851
44.8918
44.8982
44.9043
44.9101
44.9155
44.9207
44.9255
44.9301
44.9343
44.9382
44.9418
44.945
44.948
44.9506
44.9529
44.9549
44.9565
44.9578
44.9588
44.9594
44.9598
50.3543
50.3527
50.3494
50.3446
50.3384
50.3308
50.322
50.3121
50.301
50.2889
50.2756
50.2614
50.2462
50.2299
50.2126
50.1943
50.1751
50.1548
50.1335
50.1113
50.088
50.0638
50.0386
50.0124
49.9853
49.9572
49.9281
49.8982
49.8673
49.8355
49.8027
49.7691
49.7346
49.6992
49.663
49.6259
49.588
49.5492
49.5097
49.4693
49.4282
49.3863
49.3437
49.3003
49.2562
49.2114
49.1659
49.1198
49.0729
49.0255
48.9774
48.9287
48.8795
48.8297
48.7793
48.7284
48.677
48.6251
48.5727
48.5198
48.4666
48.4129
48.3588
48.3043
48.2494
48.1942
48.1387
48.0829
48.0268
47.9704
47.9138
47.8569
47.7998
47.7426
47.6852
47.6276
47.5699
47.512
47.4541
47.3961
47.3381
47.28
47.2219
47.1638
47.1057
47.0476
46.9896
46.9317
46.8739
46.8162
46.7586
46.7011
46.6438
46.5867
46.5298
46.4731
46.4167
46.3605
46.3045
46.2489
46.1935
46.1385
46.0837
46.0294
45.9753
45.9217
45.8684
45.8156
45.7631
45.7111
45.6595
45.6084
45.5578
45.5076
45.4579
45.4087
45.3601
45.312
45.2644
45.2173
45.1709
45.125
45.0796
45.0349
44.9908
44.9472
44.9043
44.862
44.8204
44.7793
44.739
44.6992
44.6602
44.6218
44.5841
44.547
44.5107
44.475
44.44
44.4057
44.3721
44.3393
44.3071
44.2756
44.2449
44.2148
44.1855
44.1569
44.129
44.1019
44.0754
44.0497
44.0247
44.0004
43.9769
43.9541
43.932
43.9106
43.8899
43.87
43.8507
43.8322
43.8144
43.7972
43.7808
43.7651
43.7501
43.7358
43.7221
43.7092