/*--------------------------------*- C++ -*----------------------------------*\
| =========                 |                                                 |
| \\      /  F ield         | OpenFOAM: The Open Source CFD Toolbox           |
|  \\    /   O peration     | Version:  2212                                  |
|   \\  /    A nd           | Website:  www.openfoam.com                      |
|    \\/     M anipulation  |                                                 |
\*---------------------------------------------------------------------------*/
FoamFile
{
    version     2.0;
    format      ascii;
    arch        "LSB;label=32;scalar=64";
    class       surfaceScalarField;
    location    "940";
    object      phi;
}
// * * * * * * * * * * * * * * * * * * * * * * * * * * * * * * * * * * * * * //

dimensions      [1 0 -1 0 0 0 0];

oriented        oriented;

internalField   nonuniform List<scalar> 
408640
(
-769.398
769.039
-1518.57
749.096
-2228.44
709.802
-2886.62
658.115
-3488.62
601.934
-4036.89
548.219
-4538.97
502.027
-5004.96
465.942
-5445.42
440.408
-5869.76
424.293
-6285.48
415.665
-6697.91
412.379
-7110.47
412.513
-7525.07
414.551
-7942.55
417.428
-8363.08
420.471
-8786.43
423.304
-9212.23
425.747
-9640.03
427.743
-10069.4
429.299
-10499.9
430.451
-10931.2
431.243
-11363
431.721
-11794.9
431.923
-12226.9
431.885
-12658.6
431.634
-13089.8
431.194
-13520.5
430.584
-13950.4
429.821
-14379.3
428.918
-14807.3
427.886
-15234.1
426.736
-15659.6
425.475
-16083.8
424.11
-16506.5
422.648
-16927.7
421.094
-17347.2
419.452
-17765
417.727
-18181
415.922
-18595.1
414.04
-19007.3
412.085
-19417.4
410.058
-19825.5
407.962
-20231.3
405.799
-20635
403.571
-21036.3
401.281
-21435.3
398.928
-21831.9
396.516
-22226.1
394.044
-22617.7
391.516
-23006.7
388.931
-23393.1
386.292
-23776.8
383.598
-24157.7
380.852
-24535.9
378.054
-24911.2
375.206
-25283.6
372.307
-25653
369.359
-26019.5
366.364
-26382.9
363.321
-26743.2
360.232
-27100.4
357.097
-27454.4
353.918
-27805.2
350.695
-28152.8
347.428
-28497
344.119
-28837.9
340.769
-29175.4
337.378
-29509.4
333.946
-29840
330.476
-30167.1
326.966
-30490.6
323.419
-30810.6
319.835
-31126.9
316.214
-31439.6
312.558
-31748.6
308.867
-32053.8
305.142
-32355.3
301.383
-32653.1
297.592
-32947
293.769
-33237
289.914
-33523.2
286.029
-33805.4
282.114
-34083.7
278.17
-34358
274.198
-34628.4
270.199
-34894.7
266.172
-35156.9
262.12
-35415.1
258.042
-35669.2
253.94
-35919.1
249.813
-36164.9
245.664
-36406.6
241.492
-36644
237.299
-36877.2
233.085
-37106.2
228.85
-37331
224.597
-37551.4
220.324
-37767.6
216.034
-37979.5
211.726
-38187
207.402
-38390.3
203.063
-38589.1
198.708
-38783.6
194.339
-38973.7
189.957
-39159.4
185.562
-39340.7
181.154
-39517.6
176.736
-39690.1
172.307
-39858.1
167.868
-40021.7
163.42
-40180.8
158.964
-40335.5
154.5
-40485.6
150.029
-40631.4
145.551
-40772.6
141.069
-40909.3
136.581
-41041.6
132.089
-41169.3
127.594
-41292.6
123.096
-41411.3
118.596
-41525.6
114.095
-41635.3
109.593
-41740.6
105.091
-41841.3
100.59
-41937.6
96.0896
-42029.3
91.5916
-42116.6
87.0964
-42199.4
82.6044
-42277.6
78.1164
-42351.4
73.6331
-42420.7
69.1549
-42485.6
64.6827
-42546
60.2169
-42601.9
55.7582
-42653.3
51.3072
-42700.4
46.8646
-42743
42.4308
-42781.1
38.0066
-42814.9
33.5924
-42844.2
29.1889
-42869.2
24.7966
-42889.7
20.4161
-42905.9
16.0478
-42917.8
11.6925
-42925.3
7.35056
-42928.5
3.02255
-42927.3
-1.29101
-42921.9
-5.58962
-42912.2
-9.87277
-42898.2
-14.14
-42879.9
-18.3907
-42857.5
-22.6246
-42830.8
-26.841
-42799.9
-31.0396
-42764.8
-35.2199
-42725.6
-39.3815
-42682.2
-43.5239
-42634.7
-47.6468
-42583.1
-51.7496
-42527.4
-55.8319
-42467.6
-59.8935
-42403.8
-63.9339
-42336
-67.9527
-42264.2
-71.9495
-42188.4
-75.924
-42108.6
-79.8759
-42025
-83.8047
-41937.4
-87.7102
-41845.9
-91.592
-41750.6
-95.4499
-41651.4
-99.2834
-41548.5
-103.092
-41441.7
-106.876
-41331.2
-110.635
-41216.9
-114.369
-41099
-118.077
-40977.3
-121.758
-40852
-125.414
-40723.1
-129.043
-40590.6
-132.646
-40454.4
-136.221
-40314.8
-139.77
-40171.6
-143.291
-40024.9
-146.785
-39874.8
-150.251
-39721.2
-153.69
-39564.2
-157.1
-39403.8
-160.482
-39240
-163.836
-39073
-167.161
-38902.6
-170.458
-38728.9
-173.726
-38552.1
-176.965
-38372
-180.176
-38188.7
-183.357
-38002.3
-186.509
-37812.7
-189.632
-37620
-192.725
-37424.3
-195.789
-37225.6
-198.824
-37023.8
-201.829
-36819.1
-204.804
-36611.4
-207.75
-36400.8
-210.666
-36187.3
-213.552
-35970.9
-216.409
-35751.7
-219.236
-35529.8
-222.033
-35305
-224.8
-35077.5
-227.538
-34847.3
-230.246
-34614.4
-232.924
-34378.9
-235.572
-34140.8
-238.19
-33900
-240.779
-33656.7
-243.338
-33410.9
-245.867
-33162.5
-248.367
-32911.7
-250.837
-32658.5
-253.278
-32402.8
-255.689
-32144.7
-258.07
-31884.3
-260.422
-31621.6
-262.745
-31356.6
-265.039
-31089.3
-267.304
-30819.8
-269.539
-30548
-271.746
-30274.1
-273.923
-29998
-276.072
-29719.8
-278.192
-29439.5
-280.283
-29157.2
-282.346
-28872.8
-284.38
-28586.4
-286.386
-28298
-288.363
-28007.7
-290.313
-27715.5
-292.234
-27421.3
-294.128
-27125.3
-295.993
-26827.4
-297.831
-26527.8
-299.641
-26226.3
-301.424
-25923.1
-303.18
-25618.2
-304.908
-25311.5
-306.609
-25003.2
-308.283
-24693.2
-309.93
-24381.7
-311.551
-24068.5
-313.145
-23753.7
-314.712
-23437.4
-316.253
-23119.6
-317.768
-22800.3
-319.257
-22479.5
-320.72
-22157.3
-322.156
-21833.7
-323.568
-21508.7
-324.953
-21182.3
-326.313
-20854.6
-327.648
-20525.6
-328.958
-20195.3
-330.242
-19863.7
-331.502
-19530.9
-332.736
-19196.9
-333.946
-18861.7
-335.132
-18525.3
-336.293
-18187.8
-337.43
-17849.2
-338.542
-17509.5
-339.631
-17168.7
-340.695
-16826.9
-341.736
-16484.1
-342.753
-16140.2
-343.746
-15795.4
-344.716
-15449.7
-345.663
-15103
-346.586
-14755.4
-347.486
-14407
-348.363
-14057.7
-349.218
-13707.5
-350.049
-13356.6
-350.858
-13004.8
-351.644
-12652.3
-352.408
-12299.1
-353.15
-11945.1
-353.869
-11590.4
-354.566
-11235.1
-355.241
-10879.1
-355.894
-10522.5
-356.526
-10165.2
-357.135
-9807.41
-357.723
-9449.01
-358.29
-9090.07
-358.835
-8730.6
-359.359
-8370.63
-359.862
-8010.18
-360.343
-7649.26
-360.804
-7287.91
-361.244
-6926.13
-361.663
-6563.96
-362.061
-6201.41
-362.439
-5838.5
-362.797
-5475.25
-363.133
-5111.69
-363.45
-4747.82
-363.746
-4383.69
-364.022
-4019.29
-364.277
-3654.67
-364.512
-3289.82
-364.726
-2924.79
-364.92
-2559.57
-365.093
-2194.21
-365.246
-1828.72
-365.377
-1463.11
-365.488
-1097.42
-365.577
-731.651
-365.646
-365.839
-365.694
-365.72
-758.283
1527.25
-1497.53
1488.27
-2199.64
1411.84
-2852.75
1311.16
-3452.39
1201.52
-4000.65
1096.42
-4504.42
1005.75
-4973.18
934.651
-5416.9
884.074
-5844.56
851.898
-6263.35
834.407
-6678.46
827.445
-7093.27
827.265
-7509.67
830.899
-7928.54
836.255
-8350.12
841.999
-8774.26
847.383
-9200.61
852.043
-9628.77
855.856
-10058.4
858.827
-10489
861.019
-10920.3
862.516
-11352
863.402
-11783.9
863.752
-12215.7
863.631
-12647.3
863.093
-13078.3
862.184
-13508.7
860.941
-13938.4
859.396
-14367.1
857.573
-14794.8
855.497
-15221.3
853.185
-15646.5
850.654
-16070.4
847.917
-16492.8
844.986
-16913.6
841.872
-17332.8
838.584
-17750.3
835.129
-18166
831.516
-18579.8
827.75
-18991.6
823.836
-19401.4
819.781
-19809.1
815.588
-20214.6
811.261
-20617.9
806.805
-21019
802.223
-21417.6
797.518
-21813.9
792.693
-22207.7
787.75
-22598.9
782.694
-22987.6
777.525
-23373.7
772.246
-23757
766.86
-24137.6
761.369
-24515.4
755.774
-24890.4
750.078
-25262.5
744.282
-25631.6
738.388
-25997.7
732.398
-26360.8
726.314
-26720.8
720.137
-27077.7
713.87
-27431.4
707.513
-27781.9
701.068
-28129.1
694.537
-28473
687.921
-28813.6
681.222
-29150.7
674.442
-29484.5
667.581
-29814.8
660.642
-30141.5
653.625
-30464.8
646.533
-30784.4
639.367
-31100.4
632.129
-31412.8
624.819
-31721.5
617.439
-32026.5
609.991
-32327.7
602.476
-32625.1
594.896
-32918.7
587.252
-33208.5
579.545
-33494.4
571.778
-33776.3
563.951
-34054.4
556.066
-34328.4
548.125
-34598.5
540.129
-34864.5
532.079
-35126.5
523.977
-35384.4
515.824
-35638.2
507.622
-35887.9
499.373
-36133.5
491.077
-36374.9
482.737
-36612.1
474.353
-36845.1
465.928
-37073.8
457.462
-37298.3
448.958
-37518.6
440.417
-37734.5
431.839
-37946.2
423.227
-38153.5
414.583
-38356.5
405.907
-38555.1
397.201
-38749.4
388.466
-38939.3
379.705
-39124.8
370.918
-39305.9
362.107
-39482.6
353.274
-39654.9
344.42
-39822.7
335.545
-39986.1
326.653
-40145
317.744
-40299.5
308.819
-40449.5
299.881
-40595.1
290.93
-40736.1
281.968
-40872.7
272.997
-41004.8
264.017
-41132.4
255.03
-41255.5
246.038
-41374.1
237.042
-41488.2
228.043
-41597.8
219.043
-41702.9
210.043
-41803.5
201.044
-41899.6
192.048
-41991.3
183.056
-42078.4
174.07
-42161
165.09
-42239.2
156.118
-42312.9
147.155
-42382.1
138.203
-42446.8
129.262
-42507.1
120.334
-42562.9
111.421
-42614.3
102.523
-42661.2
93.6419
-42703.7
84.7784
-42741.8
75.934
-42775.5
67.1097
-42804.8
58.3067
-42829.7
49.5261
-42850.2
40.7691
-42866.3
32.0367
-42878.1
23.3301
-42885.5
14.6503
-42888.7
5.99832
-42887.5
-2.62474
-42882
-11.2179
-42872.3
-19.7801
-42858.2
-28.3104
-42840
-36.8079
-42817.5
-45.2715
-42790.8
-53.7003
-42759.8
-62.0935
-42724.8
-70.45
-42685.5
-78.7691
-42642.1
-87.0499
-42594.6
-95.2914
-42543
-103.493
-42487.3
-111.654
-42427.6
-119.773
-42363.8
-127.849
-42296
-135.883
-42224.2
-143.873
-42148.5
-151.818
-42068.8
-159.717
-41985.1
-167.571
-41897.6
-175.378
-41806.2
-183.138
-41710.9
-190.849
-41611.8
-198.512
-41508.9
-206.126
-41402.2
-213.691
-41291.7
-221.204
-41177.5
-228.667
-41059.7
-236.079
-40938.1
-243.439
-40812.9
-250.746
-40684
-258.001
-40551.6
-265.202
-40415.6
-272.35
-40276
-279.443
-40132.9
-286.482
-39986.3
-293.466
-39836.3
-300.394
-39682.8
-307.267
-39525.9
-314.084
-39365.6
-320.844
-39202
-327.548
-39035.1
-334.195
-38864.8
-340.785
-38691.3
-347.318
-38514.6
-353.792
-38334.6
-360.209
-38151.5
-366.568
-37965.2
-372.869
-37775.8
-379.111
-37583.3
-385.294
-37387.8
-391.418
-37189.2
-397.484
-36987.6
-403.491
-36783
-409.438
-36575.5
-415.326
-36365.1
-421.155
-36151.7
-426.925
-35935.6
-432.635
-35716.6
-438.285
-35494.8
-443.876
-35270.2
-449.407
-35042.9
-454.879
-34812.9
-460.291
-34580.2
-465.644
-34344.9
-470.937
-34107
-476.171
-33866.4
-481.345
-33623.4
-486.46
-33377.7
-491.516
-33129.6
-496.512
-32879
-501.449
-32626
-506.327
-32370.6
-511.146
-32112.8
-515.907
-31852.6
-520.608
-31590.1
-525.251
-31325.3
-529.836
-31058.3
-534.362
-30789
-538.83
-30517.5
-543.24
-30243.8
-547.593
-29968
-551.887
-29690.1
-556.124
-29410.1
-560.304
-29128
-564.427
-28843.8
-568.493
-28557.7
-572.502
-28269.6
-576.455
-27979.6
-580.351
-27687.6
-584.191
-27393.7
-587.976
-27098
-591.705
-26800.4
-595.378
-26501
-598.996
-26199.9
-602.56
-25897
-606.068
-25592.3
-609.523
-25286
-612.923
-24977.9
-616.269
-24668.3
-619.561
-24357
-622.8
-24044.1
-625.986
-23729.7
-629.118
-23413.7
-632.198
-23096.2
-635.226
-22777.2
-638.201
-22456.7
-641.125
-22134.8
-643.997
-21811.5
-646.817
-21486.8
-649.586
-21160.8
-652.305
-20833.4
-654.972
-20504.7
-657.59
-20174.7
-660.157
-19843.5
-662.674
-19511
-665.142
-19177.3
-667.56
-18842.4
-669.93
-18506.4
-672.25
-18169.2
-674.522
-17831
-676.746
-17491.6
-678.921
-17151.2
-681.049
-16809.7
-683.128
-16467.2
-685.161
-16123.7
-687.146
-15779.3
-689.085
-15433.9
-690.977
-15087.5
-692.822
-14740.3
-694.621
-14392.2
-696.374
-14043.3
-698.082
-13693.5
-699.744
-13342.9
-701.36
-12991.5
-702.932
-12639.3
-704.458
-12286.5
-705.94
-11932.8
-707.378
-11578.5
-708.771
-11223.6
-710.12
-10867.9
-711.425
-10511.7
-712.687
-10154.8
-713.906
-9797.33
-715.081
-9439.3
-716.213
-9080.72
-717.303
-8721.62
-718.35
-8362.02
-719.354
-8001.94
-720.317
-7641.39
-721.238
-7280.41
-722.117
-6919.01
-722.955
-6557.21
-723.751
-6195.03
-724.506
-5832.49
-725.22
-5469.61
-725.894
-5106.42
-726.526
-4742.94
-727.118
-4379.17
-727.669
-4015.16
-728.179
-3650.9
-728.649
-3286.44
-729.077
-2921.78
-729.465
-2556.94
-729.811
-2191.95
-730.115
-1826.84
-730.378
-1461.61
-730.599
-1096.29
-730.778
-730.901
-730.915
-365.465
-731.011
-731.068
-742.768
2269.94
-1467.78
2213.2
-2158.59
2102.58
-2804.27
1956.78
-3400.44
1797.62
-3948.69
1644.61
-4455.08
1512.09
-4928.11
1407.63
-5376.88
1332.8
-5809.7
1284.67
-6233.33
1257.98
-6652.7
1246.77
-7071.08
1245.6
-7490.4
1250.16
-7911.59
1257.39
-8334.97
1265.33
-8760.49
1272.84
-9187.88
1279.38
-9616.83
1284.75
-10047
1288.93
-10478
1291.99
-10909.6
1294.07
-11341.5
1295.26
-11773.5
1295.67
-12205.3
1295.4
-12636.8
1294.52
-13067.8
1293.1
-13498.1
1291.19
-13927.6
1288.83
-14356.2
1286.06
-14783.6
1282.92
-15209.9
1279.43
-15635
1275.61
-16058.6
1271.49
-16480.8
1267.08
-16901.4
1262.39
-17320.3
1257.45
-17737.5
1252.26
-18152.9
1246.83
-18566.4
1241.18
-18977.9
1235.3
-19387.4
1229.21
-19794.8
1222.92
-20200.1
1216.43
-20603.1
1209.74
-21003.8
1202.86
-21402.2
1195.8
-21798.1
1188.57
-22191.6
1181.15
-22582.6
1173.57
-22970.9
1165.81
-23356.7
1157.89
-23739.7
1149.82
-24120
1141.58
-24497.5
1133.19
-24872.2
1124.64
-25244
1115.95
-25612.8
1107.11
-25978.6
1098.13
-26341.4
1089
-26701.1
1079.74
-27057.7
1070.34
-27411.1
1060.81
-27761.2
1051.14
-28108.2
1041.35
-28451.8
1031.43
-28792
1021.38
-29128.9
1011.21
-29462.4
1000.93
-29792.4
990.519
-30118.9
979.997
-30441.8
969.362
-30761.2
958.616
-31076.9
947.761
-31389
936.799
-31697.4
925.733
-32002.1
914.564
-32303.1
903.295
-32600.2
891.929
-32893.6
880.466
-33183.1
868.91
-33468.7
857.263
-33750.4
845.526
-34028.1
833.703
-34301.9
821.795
-34571.7
809.804
-34837.5
797.733
-35099.3
785.584
-35356.9
773.359
-35610.5
761.061
-35860
748.691
-36105.3
736.251
-36346.4
723.745
-36583.4
711.174
-36816.2
698.541
-37044.7
685.847
-37269
673.095
-37489
660.287
-37704.7
647.425
-37916.1
634.512
-38123.3
621.55
-38326
608.54
-38524.5
595.486
-38718.6
582.389
-38908.3
569.252
-39093.6
556.077
-39274.5
542.866
-39451
529.62
-39623.1
516.344
-39790.7
503.037
-39953.9
489.704
-40112.7
476.345
-40267
462.963
-40416.8
449.561
-40562.2
436.14
-40703.1
422.702
-40839.5
409.25
-40971.4
395.786
-41098.8
382.311
-41221.8
368.828
-41340.2
355.34
-41454.2
341.847
-41563.7
328.352
-41668.6
314.857
-41769.1
301.365
-41865.1
287.876
-41956.6
274.394
-42043.6
260.919
-42126.1
247.455
-42204.2
234.002
-42277.8
220.564
-42346.9
207.141
-42411.5
193.735
-42471.7
180.35
-42527.4
166.985
-42578.7
153.644
-42625.5
140.328
-42667.9
127.038
-42705.9
113.777
-42739.5
100.546
-42768.7
87.3476
-42793.5
74.1824
-42814
61.0527
-42830
47.9599
-42841.8
34.9057
-42849.2
21.8917
-42852.2
8.91957
-42851
-4.00924
-42845.5
-16.8932
-42835.7
-29.7307
-42821.6
-42.5204
-42803.3
-55.2608
-42780.8
-67.9504
-42754
-80.5878
-42723.1
-93.1717
-42688
-105.701
-42648.7
-118.174
-42605.3
-130.589
-42557.8
-142.946
-42506.2
-155.242
-42450.5
-167.477
-42390.8
-179.65
-42327
-191.759
-42259.2
-203.804
-42187.5
-215.783
-42111.7
-227.694
-42032
-239.538
-41948.4
-251.313
-41860.9
-263.018
-41769.5
-274.651
-41674.3
-286.213
-41575.2
-297.702
-41472.3
-309.117
-41365.7
-320.458
-41255.3
-331.723
-41141.2
-342.912
-41023.3
-354.024
-40901.8
-365.058
-40776.7
-376.013
-40647.9
-386.889
-40515.5
-397.686
-40379.6
-408.401
-40240.1
-419.036
-40097.1
-429.589
-39950.6
-440.059
-39800.6
-450.446
-39647.3
-460.75
-39490.5
-470.97
-39330.3
-481.105
-39166.8
-491.156
-38999.9
-501.121
-38829.8
-511
-38656.4
-520.794
-38479.8
-530.501
-38300
-540.121
-38117
-549.654
-37930.8
-559.099
-37741.5
-568.457
-37549.2
-577.727
-37353.8
-586.908
-37155.3
-596.002
-36953.9
-605.007
-36749.4
-613.923
-36542.1
-622.75
-36331.8
-631.488
-36118.6
-640.137
-35902.6
-648.697
-35683.8
-657.168
-35462.2
-665.55
-35237.8
-673.842
-35010.7
-682.045
-34780.9
-690.158
-34548.4
-698.183
-34313.2
-706.118
-34075.5
-713.964
-33835.1
-721.721
-33592.2
-729.388
-33346.8
-736.967
-33098.9
-744.457
-32848.5
-751.858
-32595.7
-759.171
-32340.5
-766.395
-32082.9
-773.532
-31822.9
-780.58
-31560.6
-787.54
-31296.1
-794.412
-31029.2
-801.198
-30760.2
-807.896
-30488.9
-814.507
-30215.5
-821.031
-29939.9
-827.469
-29662.2
-833.821
-29382.4
-840.086
-29100.6
-846.267
-28816.7
-852.362
-28530.8
-858.371
-28243
-864.297
-27953.2
-870.137
-27661.4
-875.894
-27367.8
-881.567
-27072.4
-887.157
-26775.1
-892.663
-26475.9
-898.087
-26175
-903.429
-25872.4
-908.688
-25568
-913.866
-25261.9
-918.963
-24954.2
-923.979
-24644.8
-928.914
-24333.8
-933.769
-24021.2
-938.544
-23707
-943.24
-23391.3
-947.857
-23074.1
-952.395
-22755.4
-956.856
-22435.2
-961.238
-22113.6
-965.543
-21790.6
-969.77
-21466.2
-973.921
-21140.5
-977.996
-20813.4
-981.995
-20485
-985.918
-20155.4
-989.766
-19824.4
-993.54
-19492.3
-997.239
-19158.9
-1000.86
-18824.3
-1004.42
-18488.6
-1007.89
-18151.8
-1011.3
-17813.8
-1014.63
-17474.7
-1017.89
-17134.6
-1021.08
-16793.5
-1024.2
-16451.3
-1027.25
-16108.2
-1030.22
-15764
-1033.13
-15419
-1035.96
-15073
-1038.73
-14726.1
-1041.43
-14378.3
-1044.05
-14029.7
-1046.61
-13680.2
-1049.1
-13330
-1051.53
-12978.9
-1053.88
-12627.1
-1056.17
-12274.5
-1058.39
-11921.3
-1060.55
-11567.3
-1062.64
-11212.7
-1064.66
-10857.4
-1066.61
-10501.5
-1068.51
-10144.9
-1070.33
-9787.81
-1072.09
-9430.12
-1073.79
-9071.89
-1075.42
-8713.14
-1076.99
-8353.89
-1078.5
-7994.15
-1079.94
-7633.96
-1081.32
-7273.33
-1082.64
-6912.27
-1083.9
-6550.82
-1085.09
-6188.99
-1086.22
-5826.81
-1087.29
-5464.29
-1088.3
-5101.45
-1089.25
-4738.32
-1090.14
-4374.91
-1090.96
-4011.25
-1091.73
-3647.35
-1092.43
-3283.23
-1093.07
-2918.93
-1093.65
-2554.45
-1094.17
-2189.82
-1094.63
-1825.06
-1095.02
-1460.18
-1095.35
-1095.22
-1095.62
-730.186
-1095.83
-365.106
-1095.97
-1096.06
-721.794
2991.65
-1427.66
2918.99
-2103.31
2778.16
-2739.05
2592.45
-3330.65
2389.16
-3879.06
2192.97
-4389.19
2022.17
-4868.25
1886.64
-5324.14
1788.64
-5764.25
1724.73
-6194.7
1688.38
-6620.09
1672.1
-7043.56
1669.01
-7467.04
1673.59
-7891.57
1681.87
-8317.59
1691.3
-8745.16
1700.37
-9174.16
1708.33
-9604.35
1714.88
-10035.5
1719.98
-10467.2
1723.7
-10899.4
1726.17
-11331.7
1727.53
-11764
1727.89
-12196
1727.38
-12627.6
1726.09
-13058.7
1724.09
-13489
1721.46
-13918.5
1718.24
-14347
1714.49
-14774.4
1710.25
-15200.6
1705.56
-15625.5
1700.43
-16049
1694.91
-16471
1689
-16891.4
1682.73
-17310.1
1676.12
-17727.1
1669.19
-18142.3
1661.94
-18555.6
1654.38
-18966.9
1646.54
-19376.1
1638.41
-19783.3
1630.01
-20188.3
1621.35
-20591.1
1612.43
-20991.5
1603.25
-21389.7
1593.84
-21785.4
1584.18
-22178.6
1574.29
-22569.3
1564.18
-22957.4
1553.84
-23342.9
1543.28
-23725.6
1532.51
-24105.7
1521.52
-24482.9
1510.34
-24857.3
1498.94
-25228.8
1487.35
-25597.4
1475.57
-25962.9
1463.59
-26325.4
1451.43
-26684.9
1439.08
-27041.2
1426.55
-27394.3
1413.84
-27744.2
1400.95
-28090.9
1387.9
-28434.2
1374.67
-28774.2
1361.28
-29110.9
1347.72
-29444
1334.01
-29773.8
1320.13
-30100
1306.11
-30422.7
1291.93
-30741.8
1277.61
-31057.3
1263.14
-31369.1
1248.52
-31677.3
1233.77
-31981.7
1218.88
-32282.4
1203.86
-32579.3
1188.71
-32872.4
1173.43
-33161.7
1158.03
-33447
1142.5
-33728.5
1126.86
-34006
1111.1
-34279.6
1095.22
-34549.2
1079.24
-34814.7
1063.15
-35076.2
1046.96
-35333.6
1030.66
-35587
1014.27
-35836.2
997.78
-36081.3
981.199
-36322.2
964.529
-36559
947.772
-36791.5
930.933
-37019.8
914.013
-37243.9
897.015
-37463.7
879.943
-37679.2
862.8
-37890.4
845.587
-38097.3
828.31
-38299.9
810.97
-38498.1
793.57
-38692
776.113
-38881.5
758.602
-39066.6
741.041
-39247.4
723.431
-39423.7
705.777
-39595.6
688.08
-39763
670.345
-39926
652.572
-40084.6
634.767
-40238.7
616.931
-40388.4
599.067
-40533.6
581.178
-40674.3
563.268
-40810.6
545.338
-40942.3
527.391
-41069.6
509.432
-41192.4
491.461
-41310.7
473.482
-41424.5
455.498
-41533.8
437.512
-41638.7
419.525
-41739
401.542
-41834.8
383.563
-41926.2
365.593
-42013.1
347.634
-42095.5
329.688
-42173.4
311.758
-42246.8
293.847
-42315.8
275.957
-42380.3
258.09
-42440.4
240.249
-42496
222.437
-42547.2
204.655
-42593.9
186.907
-42636.2
169.195
-42674.1
151.52
-42707.6
133.886
-42736.7
116.295
-42761.4
98.7487
-42781.8
81.2494
-42797.8
63.7995
-42809.4
46.4011
-42816.7
29.0563
-42819.7
11.7672
-42818.4
-5.46398
-42812.8
-22.6353
-42803
-39.7448
-42788.9
-56.7905
-42770.5
-73.7704
-42747.9
-90.6826
-42721.1
-107.525
-42690.1
-124.297
-42655
-140.995
-42615.7
-157.618
-42572.3
-174.164
-42524.7
-190.632
-42473.1
-207.02
-42417.4
-223.327
-42357.6
-239.55
-42293.8
-255.688
-42226
-271.74
-42154.2
-287.704
-42078.5
-303.579
-41998.8
-319.364
-41915.2
-335.056
-41827.6
-350.655
-41736.3
-366.159
-41641
-381.568
-41542
-396.879
-41439.1
-412.092
-41332.5
-427.205
-41222.1
-442.218
-41108
-457.129
-40990.2
-471.938
-40868.8
-486.643
-40743.6
-501.243
-40614.9
-515.737
-40482.6
-530.125
-40346.7
-544.405
-40207.2
-558.577
-40064.3
-572.64
-39917.9
-586.593
-39768
-600.436
-39614.6
-614.167
-39457.9
-627.786
-39297.8
-641.293
-39134.4
-654.687
-38967.6
-667.967
-38797.6
-681.132
-38624.3
-694.183
-38447.7
-707.118
-38268
-719.938
-38085.1
-732.642
-37899
-745.229
-37709.9
-757.699
-37517.6
-770.052
-37322.3
-782.287
-37124
-794.405
-36922.6
-806.405
-36718.3
-818.286
-36511.1
-830.049
-36301
-841.693
-36087.9
-853.219
-35872.1
-864.626
-35653.4
-875.914
-35431.9
-887.083
-35207.7
-898.132
-34980.7
-909.063
-34751
-919.875
-34518.7
-930.568
-34283.7
-941.141
-34046.1
-951.596
-33805.9
-961.932
-33563.2
-972.15
-33317.9
-982.249
-33070.2
-992.229
-32820
-1002.09
-32567.3
-1011.84
-32312.3
-1021.46
-32054.9
-1030.97
-31795.1
-1040.36
-31533
-1049.64
-31268.7
-1058.8
-31002
-1067.84
-30733.2
-1076.76
-30462.1
-1085.57
-30188.9
-1094.26
-29913.5
-1102.84
-29636
-1111.31
-29356.4
-1119.65
-29074.8
-1127.89
-28791.2
-1136.01
-28505.5
-1144.02
-28217.9
-1151.91
-27928.3
-1159.7
-27636.8
-1167.37
-27343.4
-1174.93
-27048.2
-1182.37
-26751.1
-1189.71
-26452.3
-1196.94
-26151.6
-1204.05
-25849.2
-1211.06
-25545.1
-1217.96
-25239.2
-1224.75
-24931.8
-1231.44
-24622.6
-1238.01
-24311.9
-1244.48
-23999.5
-1250.84
-23685.6
-1257.1
-23370.2
-1263.25
-23053.2
-1269.3
-22734.8
-1275.24
-22414.9
-1281.08
-22093.6
-1286.82
-21770.8
-1292.45
-21446.7
-1297.98
-21121.3
-1303.41
-20794.5
-1308.74
-20466.3
-1313.96
-20137
-1319.09
-19806.3
-1324.12
-19474.4
-1329.05
-19141.4
-1333.88
-18807.1
-1338.61
-18471.7
-1343.24
-18135.1
-1347.78
-17797.4
-1352.22
-17458.7
-1356.57
-17118.9
-1360.81
-16778
-1364.97
-16436.2
-1369.03
-16093.3
-1372.99
-15749.5
-1376.86
-15404.7
-1380.64
-15059.1
-1384.33
-14712.5
-1387.92
-14365
-1391.42
-14016.7
-1394.83
-13667.6
-1398.15
-13317.6
-1401.38
-12966.9
-1404.52
-12615.4
-1407.57
-12263.2
-1410.52
-11910.2
-1413.4
-11556.6
-1416.18
-11202.3
-1418.87
-10847.3
-1421.48
-10491.7
-1424
-10135.5
-1426.43
-9778.71
-1428.78
-9421.35
-1431.04
-9063.45
-1433.22
-8705.03
-1435.31
-8346.11
-1437.31
-7986.71
-1439.24
-7626.85
-1441.07
-7266.55
-1442.83
-6905.83
-1444.5
-6544.71
-1446.09
-6183.22
-1447.6
-5821.37
-1449.03
-5459.19
-1450.37
-5096.69
-1451.63
-4733.9
-1452.82
-4370.83
-1453.92
-4007.5
-1454.94
-3643.94
-1455.87
-3280.17
-1456.73
-2916.2
-1457.5
-2552.07
-1458.19
-2187.77
-1458.8
-1823.35
-1459.33
-1458.82
-1459.77
-1094.2
-1460.13
-729.507
-1460.4
-364.769
-1460.59
-1460.71
-701.736
3693.31
-1389.22
3606.4
-2050.11
3438.98
-2675.86
3218.14
-3262.46
2975.71
-3810.36
2740.81
-4323.47
2535.22
-4807.84
2370.95
-5270.26
2251.01
-5717.25
2171.67
-6154.29
2125.38
-6585.63
2103.39
-7014.24
2097.57
-7442.04
2101.33
-7870.11
2109.9
-8299
2120.13
-8728.88
2130.2
-9159.72
2139.12
-9591.37
2146.48
-10023.6
2152.2
-10456.3
2156.33
-10889.2
2159
-11322.1
2160.37
-11754.8
2160.56
-12187.2
2159.7
-12619.1
2157.91
-13050.3
2155.26
-13480.8
2151.85
-13910.3
2147.73
-14338.9
2142.96
-14766.3
2137.58
-15192.4
2131.65
-15617.2
2125.19
-16040.6
2118.24
-16462.5
2110.82
-16882.8
2102.95
-17301.4
2094.66
-17718.3
2085.96
-18133.3
2076.88
-18546.4
2067.42
-18957.5
2057.59
-19366.6
2047.42
-19773.6
2036.91
-20178.4
2026.07
-20580.9
2014.91
-20981.2
2003.43
-21379.1
1991.66
-21774.6
1979.58
-22167.6
1967.21
-22558
1954.56
-22945.9
1941.64
-23331.2
1928.44
-23713.7
1914.97
-24093.5
1901.24
-24470.5
1887.25
-24844.7
1873.01
-25216
1858.52
-25584.3
1843.79
-25949.6
1828.82
-26311.9
1813.61
-26671.1
1798.18
-27027.1
1782.51
-27380
1766.63
-27729.7
1750.52
-28076.1
1734.2
-28419.2
1717.67
-28759
1700.94
-29095.4
1683.99
-29428.4
1666.85
-29757.8
1649.52
-30083.8
1631.99
-30406.3
1614.27
-30725.2
1596.37
-31040.4
1578.28
-31352
1560.02
-31660
1541.58
-31964.2
1522.98
-32264.6
1504.2
-32561.3
1485.27
-32854.2
1466.17
-33143.2
1446.92
-33428.4
1427.52
-33709.6
1407.97
-33986.9
1388.27
-34260.2
1368.44
-34529.6
1348.46
-34794.9
1328.35
-35056.2
1308.12
-35313.5
1287.75
-35566.6
1267.26
-35815.6
1246.66
-36060.5
1225.94
-36301.2
1205.11
-36537.7
1184.17
-36770.1
1163.12
-36998.2
1141.98
-37222
1120.74
-37441.6
1099.4
-37657
1077.98
-37868
1056.47
-38074.7
1034.88
-38277.1
1013.21
-38475.1
991.465
-38668.8
969.65
-38858.1
947.768
-39043.1
925.822
-39223.6
903.817
-39399.8
881.755
-39571.5
859.641
-39738.8
837.478
-39901.6
815.269
-40060
793.019
-40214
770.731
-40363.5
748.408
-40508.5
726.054
-40649.1
703.672
-40785.2
681.267
-40916.8
658.841
-41043.9
636.398
-41166.5
613.942
-41284.7
591.476
-41398.3
569.003
-41507.5
546.527
-41612.2
524.052
-41712.4
501.58
-41808.1
479.114
-41899.3
456.659
-41986.1
434.218
-42068.3
411.793
-42146.1
389.388
-42219.4
367.007
-42288.3
344.651
-42352.7
322.326
-42412.6
300.032
-42468.1
277.775
-42519.2
255.556
-42565.8
233.379
-42608
211.246
-42645.8
189.161
-42679.2
167.127
-42708.2
145.146
-42732.9
123.221
-42753.1
101.355
-42769
79.5508
-42780.6
57.811
-42787.8
36.1382
-42790.7
14.5352
-42789.4
-6.9955
-42783.7
-28.4514
-42773.8
-49.8299
-42759.6
-71.1285
-42741.2
-92.345
-42718.5
-113.477
-42691.7
-134.522
-42660.6
-155.477
-42625.4
-176.341
-42586.1
-197.112
-42542.6
-217.786
-42495
-238.363
-42443.3
-258.839
-42387.6
-279.213
-42327.8
-299.484
-42263.9
-319.648
-42196.1
-339.704
-42124.3
-359.651
-42048.5
-379.486
-41968.8
-399.208
-41885.2
-418.814
-41797.7
-438.304
-41706.3
-457.676
-41611
-476.928
-41512
-496.058
-41409.1
-515.066
-41302.5
-533.949
-41192.1
-552.706
-41078
-571.336
-40960.3
-589.838
-40838.8
-608.21
-40713.7
-626.452
-40585
-644.561
-40452.7
-662.537
-40316.8
-680.379
-40177.4
-698.085
-40034.5
-715.655
-39888.1
-733.088
-39738.3
-750.382
-39585
-767.538
-39428.3
-784.553
-39268.3
-801.428
-39104.9
-818.162
-38938.2
-834.753
-38768.2
-851.201
-38595
-867.506
-38418.5
-883.667
-38238.9
-899.683
-38056
-915.554
-37870
-931.279
-37681
-946.859
-37488.8
-962.291
-37293.6
-977.577
-37095.3
-992.716
-36894.1
-1007.71
-36689.9
-1022.55
-36482.8
-1037.25
-36272.7
-1051.79
-36059.8
-1066.19
-35844
-1080.44
-35625.5
-1094.54
-35404.1
-1108.5
-35180
-1122.3
-34953.1
-1135.96
-34723.6
-1149.46
-34491.4
-1162.82
-34256.5
-1176.03
-34019.1
-1189.09
-33779
-1202
-33536.4
-1214.77
-33291.3
-1227.38
-33043.7
-1239.85
-32793.7
-1252.17
-32541.2
-1264.35
-32286.3
-1276.37
-32029.1
-1288.25
-31769.5
-1299.98
-31507.5
-1311.57
-31243.3
-1323.01
-30976.9
-1334.3
-30708.2
-1345.45
-30437.3
-1356.46
-30164.3
-1367.32
-29889.1
-1378.03
-29611.8
-1388.6
-29332.4
-1399.03
-29051
-1409.32
-28767.5
-1419.46
-28482
-1429.47
-28194.6
-1439.33
-27905.3
-1449.05
-27614
-1458.63
-27320.8
-1468.08
-27025.8
-1477.38
-26728.9
-1486.54
-26430.3
-1495.57
-26129.8
-1504.46
-25827.6
-1513.22
-25523.7
-1521.83
-25218.1
-1530.32
-24910.9
-1538.66
-24602
-1546.88
-24291.5
-1554.96
-23979.4
-1562.91
-23665.7
-1570.72
-23350.5
-1578.41
-23033.8
-1585.96
-22715.6
-1593.38
-22395.9
-1600.67
-22074.9
-1607.84
-21752.4
-1614.88
-21428.5
-1621.78
-21103.3
-1628.56
-20776.8
-1635.22
-20448.9
-1641.75
-20119.8
-1648.15
-19789.4
-1654.43
-19457.8
-1660.59
-19125
-1666.62
-18791
-1672.53
-18455.8
-1678.32
-18119.6
-1683.99
-17782.2
-1689.53
-17443.7
-1694.96
-17104.2
-1700.27
-16763.6
-1705.46
-16422
-1710.53
-16079.4
-1715.48
-15735.9
-1720.31
-15391.4
-1725.03
-15046
-1729.64
-14699.7
-1734.12
-14352.6
-1738.5
-14004.6
-1742.76
-13655.7
-1746.9
-13306.1
-1750.93
-12955.6
-1754.85
-12604.4
-1758.66
-12252.5
-1762.36
-11899.9
-1765.94
-11546.5
-1769.42
-11192.5
-1772.78
-10837.8
-1776.04
-10482.6
-1779.19
-10126.7
-1782.23
-9770.17
-1785.16
-9413.13
-1787.98
-9055.54
-1790.7
-8697.43
-1793.31
-8338.81
-1795.82
-7979.72
-1798.22
-7620.17
-1800.51
-7260.19
-1802.71
-6899.78
-1804.79
-6538.98
-1806.78
-6177.8
-1808.66
-5816.27
-1810.45
-5454.4
-1812.13
-5092.22
-1813.7
-4729.74
-1815.18
-4366.99
-1816.55
-4003.99
-1817.83
-3640.74
-1819
-3277.29
-1820.07
-2913.64
-1821.03
-2549.82
-1821.9
-2185.85
-1822.66
-1821.75
-1823.31
-1457.54
-1823.86
-1093.24
-1824.31
-728.864
-1824.66
-364.445
-1824.9
-1825.03
-681.397
4374.63
-1350.28
4275.2
-1996.11
4084.74
-2611.45
3833.41
-3192.55
3556.75
-3739.43
3287.64
-4255.08
3050.82
-4744.45
2860.26
-5213.26
2719.78
-5667.12
2625.48
-6110.91
2569.11
-6548.45
2540.88
-6982.52
2531.6
-7414.98
2533.74
-7846.95
2541.82
-8279.06
2552.19
-8711.58
2562.66
-9144.56
2572.05
-9577.96
2579.82
-10011.6
2585.83
-10445.5
2590.11
-10879.3
2592.77
-11313
2593.97
-11746.3
2593.84
-12179.2
2592.51
-12611.4
2590.12
-13043
2586.74
-13473.7
2582.48
-13903.4
2577.39
-14332
2571.55
-14759.5
2565
-15185.7
2557.79
-15610.6
2549.97
-16034
2541.56
-16455.8
2532.6
-16876.1
2523.11
-17294.6
2513.12
-17711.3
2502.65
-18126.3
2491.72
-18539.3
2480.34
-18950.3
2468.53
-19359.2
2456.3
-19766.1
2443.67
-20170.7
2430.64
-20573.1
2417.23
-20973.2
2403.45
-21370.9
2389.31
-21766.3
2374.81
-22159.1
2359.96
-22549.4
2344.78
-22937.1
2329.26
-23322.1
2313.41
-23704.5
2297.24
-24084.1
2280.76
-24460.9
2263.97
-24834.9
2246.88
-25206
2229.5
-25574.1
2211.82
-25939.2
2193.85
-26301.3
2175.6
-26660.3
2157.08
-27016.2
2138.28
-27368.9
2119.22
-27718.4
2099.9
-28064.6
2080.31
-28407.5
2060.48
-28747.1
2040.39
-29083.2
2020.07
-29416
1999.5
-29745.3
1978.7
-30071.1
1957.66
-30393.3
1936.4
-30712
1914.92
-31027.1
1893.23
-31338.5
1871.31
-31646.2
1849.19
-31950.2
1826.87
-32250.5
1804.35
-32547
1781.63
-32839.6
1758.72
-33128.5
1735.62
-33413.4
1712.34
-33694.4
1688.88
-33971.6
1665.25
-34244.7
1641.45
-34513.9
1617.49
-34779
1593.36
-35040.1
1569.08
-35297.1
1544.65
-35550.1
1520.07
-35798.9
1495.35
-36043.6
1470.49
-36284.1
1445.5