/*--------------------------------*- C++ -*----------------------------------*\
| =========                 |                                                 |
| \\      /  F ield         | OpenFOAM: The Open Source CFD Toolbox           |
|  \\    /   O peration     | Version:  2212                                  |
|   \\  /    A nd           | Website:  www.openfoam.com                      |
|    \\/     M anipulation  |                                                 |
\*---------------------------------------------------------------------------*/
FoamFile
{
    version     2.0;
    format      ascii;
    arch        "LSB;label=32;scalar=64";
    class       surfaceScalarField;
    location    "450";
    object      phi;
}
// * * * * * * * * * * * * * * * * * * * * * * * * * * * * * * * * * * * * * //

dimensions      [1 0 -1 0 0 0 0];

oriented        oriented;

internalField   nonuniform List<scalar> 
408640
(
-2142.93
2140.65
-4256.76
2113.01
-6313.36
2055.79
-8291.74
1977.57
-10179.9
1887.39
-11974.5
1793.73
-13678.7
1703.4
-15300.4
1620.92
-16849.9
1548.68
-18337.9
1487.23
-19774.6
1435.93
-21168.8
1393.45
-22527.7
1358.2
-23857
1328.59
-25161
1303.21
-26442.5
1280.87
-27703.9
1260.61
-28946.3
1241.73
-30170.7
1223.69
-31377.5
1206.13
-32567
1188.77
-33739.2
1171.47
-34894
1154.12
-36031.4
1136.68
-37151.2
1119.11
-38253.3
1101.41
-39337.6
1083.59
-40403.9
1065.66
-41452.3
1047.64
-42482.5
1029.55
-43494.6
1011.38
-44488.4
993.174
-45464.1
974.926
-46421.4
956.653
-47360.5
938.364
-48281.2
920.068
-49183.7
901.774
-50067.8
883.489
-50933.8
865.22
-51781.4
846.974
-52610.8
828.756
-53422.1
810.572
-54215.2
792.427
-54990.2
774.328
-55747.2
756.278
-56486.1
738.283
-57207.1
720.347
-57910.3
702.474
-58595.6
684.67
-59263.2
666.939
-59913.2
649.285
-60545.5
631.711
-61160.4
614.223
-61757.9
596.824
-62338.1
579.518
-62901
562.309
-63446.9
545.201
-63975.7
528.198
-64487.6
511.304
-64982.8
494.521
-65461.3
477.854
-65923.2
461.307
-66368.7
444.882
-66797.9
428.582
-67211
412.412
-67608
396.375
-67989
380.473
-68354.4
364.71
-68704
349.088
-69038.3
333.61
-69357.1
318.28
-69660.8
303.099
-69949.5
288.071
-70223.3
273.198
-70482.3
258.482
-70726.8
243.926
-70956.9
229.532
-71172.8
215.302
-71374.6
201.237
-71562.5
187.341
-71736.7
173.614
-71897.3
160.058
-72044.5
146.676
-72178.5
133.468
-72299.5
120.435
-72407.6
107.58
-72503
94.9036
-72586
82.4062
-72656.6
70.0892
-72715
57.9534
-72761.5
45.9996
-72796.3
34.2285
-72819.4
22.6407
-72831.1
11.2366
-72831.6
0.0166135
-72821.1
-11.019
-72799.7
-21.8701
-72767.6
-32.5366
-72725.1
-43.0184
-72672.2
-53.3158
-72609.3
-63.4287
-72536.3
-73.3577
-72453.7
-83.103
-72361.5
-92.665
-72259.8
-102.044
-72149
-111.242
-72029.2
-120.257
-71900.5
-129.093
-71763.2
-137.748
-71617.4
-146.224
-71463.2
-154.523
-71301
-162.645
-71130.8
-170.591
-70952.8
-178.362
-70767.2
-185.961
-70574.2
-193.387
-70373.9
-200.642
-70166.6
-207.729
-69952.3
-214.647
-69731.2
-221.4
-69503.6
-227.987
-69269.5
-234.412
-69029.2
-240.675
-68782.7
-246.778
-68530.3
-252.723
-68272.1
-258.512
-68008.3
-264.147
-67739
-269.629
-67464.3
-274.96
-67184.4
-280.142
-66899.6
-285.177
-66609.8
-290.067
-66315.2
-294.814
-66016.1
-299.419
-65712.4
-303.886
-65404.5
-308.215
-65092.3
-312.409
-64776.1
-316.471
-64455.9
-320.401
-64132
-324.202
-63804.3
-327.876
-63473.1
-331.425
-63138.5
-334.852
-62800.5
-338.157
-62459.4
-341.345
-62115.2
-344.415
-61768
-347.371
-61418
-350.214
-61065.2
-352.948
-60709.8
-355.572
-60351.9
-358.091
-59991.5
-360.505
-59628.8
-362.817
-59264
-365.029
-58897
-367.143
-58527.9
-369.16
-58157
-371.084
-57784.2
-372.915
-57409.7
-374.656
-57033.5
-376.308
-56655.7
-377.875
-56276.4
-379.357
-55895.8
-380.756
-55513.8
-382.075
-55130.5
-383.315
-54746.1
-384.478
-54360.6
-385.566
-53974.1
-386.581
-53586.6
-387.524
-53198.3
-388.397
-52809.1
-389.202
-52419.2
-389.941
-52028.7
-390.616
-51637.4
-391.228
-51245.7
-391.778
-50853.4
-392.269
-50460.7
-392.701
-50067.7
-393.078
-49674.3
-393.399
-49280.6
-393.668
-48886.7
-393.884
-48492.6
-394.051
-48098.4
-394.168
-47704.1
-394.238
-47309.8
-394.263
-46915.5
-394.243
-46521.3
-394.179
-46127.2
-394.074
-45733.2
-393.929
-45339.3
-393.745
-44945.7
-393.522
-44552.4
-393.264
-44159.3
-392.97
-43766.6
-392.642
-43374.2
-392.281
-42982.2
-391.889
-42590.6
-391.466
-42199.5
-391.013
-41808.8
-390.533
-41418.6
-390.025
-41029
-389.492
-40639.9
-388.933
-40251.4
-388.351
-39863.5
-387.745
-39476.2
-387.118
-39089.6
-386.47
-38703.6
-385.801
-38318.3
-385.114
-37933.7
-384.408
-37549.8
-383.685
-37166.7
-382.946
-36784.3
-382.191
-36402.6
-381.421
-36021.8
-380.638
-35641.7
-379.841
-35262.5
-379.032
-34884
-378.212
-34506.4
-377.381
-34129.6
-376.539
-33753.6
-375.689
-33378.5
-374.83
-33004.3
-373.963
-32631
-373.088
-32258.5
-372.207
-31886.9
-371.32
-31516.1
-370.428
-31146.3
-369.531
-30777.4
-368.63
-30409.3
-367.725
-30042.2
-366.817
-29676
-365.907
-29310.7
-364.994
-28946.3
-364.081
-28582.7
-363.166
-28220.2
-362.251
-27858.5
-361.337
-27497.7
-360.423
-27137.8
-359.509
-26778.9
-358.598
-26420.8
-357.688
-26063.6
-356.781
-25707.4
-355.876
-25352
-354.975
-24997.6
-354.077
-24644
-353.184
-24291.3
-352.294
-23939.5
-351.409
-23588.5
-350.53
-23238.5
-349.656
-22889.2
-348.787
-22540.9
-347.925
-22193.4
-347.069
-21846.7
-346.219
-21500.9
-345.377
-21155.9
-344.542
-20811.8
-343.715
-20468.4
-342.895
-20125.9
-342.084
-19784.1
-341.281
-19443.2
-340.487
-19103
-339.701
-18763.6
-338.925
-18424.9
-338.158
-18087.1
-337.401
-17749.9
-336.653
-17413.5
-335.916
-17077.8
-335.188
-16742.8
-334.472
-16408.6
-333.765
-16075
-333.07
-15742.1
-332.386
-15409.9
-331.713
-15078.3
-331.051
-14747.4
-330.4
-14417.1
-329.762
-14087.4
-329.135
-13758.3
-328.52
-13429.9
-327.917
-13102
-327.327
-12774.7
-326.749
-12448
-326.183
-12121.8
-325.63
-11796.1
-325.09
-11471
-324.563
-11146.4
-324.048
-10822.3
-323.547
-10498.7
-323.059
-10175.5
-322.585
-9852.82
-322.124
-9530.56
-321.676
-9208.74
-321.242
-8887.34
-320.822
-8566.34
-320.415
-8245.73
-320.022
-7925.5
-319.644
-7605.63
-319.279
-7286.11
-318.928
-6966.93
-318.592
-6648.06
-318.269
-6329.5
-317.961
-6011.24
-317.667
-5693.25
-317.388
-5375.52
-317.123
-5058.04
-316.873
-4740.8
-316.637
-4423.78
-316.417
-4106.96
-316.211
-3790.33
-316.02
-3473.88
-315.844
-3157.58
-315.683
-2841.43
-315.538
-2525.41
-315.409
-2209.5
-315.295
-1893.69
-315.197
-1577.96
-315.115
-1262.3
-315.049
-946.685
-314.998
-631.106
-314.963
-315.549
-314.942
-314.933
-2117.76
4257.61
-4209.22
4203.66
-6248.36
4094.13
-8215.49
3943.88
-10098.9
3769.96
-11894.2
3588.28
-13603.6
3411.93
-15233.2
3249.78
-16792
3106.68
-18289.6
2984.02
-19735.3
2880.86
-21137.5
2794.85
-22503.1
2723.06
-23837.7
2662.51
-25145.7
2610.48
-26430.2
2564.67
-27693.5
2523.22
-28937.2
2484.69
-30162.2
2448.01
-31369.2
2412.4
-32558.4
2377.34
-33730.1
2342.47
-34884.3
2307.58
-36020.9
2272.55
-37139.8
2237.31
-38240.9
2201.84
-39324.1
2166.16
-40389.4
2130.27
-41436.7
2094.21
-42465.9
2058
-43476.8
2021.67
-44469.6
1985.24
-45444.1
1948.75
-46400.3
1912.2
-47338.3
1875.63
-48258
1839.05
-49159.3
1802.46
-50042.4
1765.9
-50907.3
1729.37
-51753.9
1692.89
-52582.3
1656.47
-53392.5
1620.11
-54184.6
1583.83
-54958.6
1547.64
-55714.5
1511.56
-56452.5
1475.58
-57172.5
1439.72
-57874.7
1403.99
-58559.1
1368.39
-59225.7
1332.94
-59874.8
1297.64
-60506.2
1262.51
-61120.2
1227.55
-61716.8
1192.76
-62296.1
1158.16
-62858.2
1123.76
-63403.2
1089.56
-63931.2
1055.56
-64442.3
1021.79
-64936.7
988.236
-65414.3
954.916
-65875.5
921.834
-66320.2
888.997
-66748.7
856.412
-67161
824.086
-67557.2
792.025
-67937.6
760.235
-68302.2
728.722
-68651.2
697.491
-68984.8
666.55
-69303
635.903
-69606.1
605.556
-69894.1
575.514
-70167.3
545.781
-70425.7
516.364
-70669.6
487.265
-70899.2
458.49
-71114.5
430.044
-71315.7
401.929
-71503.1
374.149
-71676.7
346.709
-71836.8
319.612
-71983.6
292.861
-72117.1
266.459
-72237.6
240.408
-72345.3
214.711
-72440.3
189.371
-72522.8
164.39
-72593
139.77
-72651
115.512
-72697.2
91.6179
-72731.5
68.0893
-72754.3
44.927
-72765.7
22.1322
-72765.9
-0.294552
-72755
-22.3526
-72733.3
-44.0416
-72701
-65.3615
-72658.1
-86.3121
-72605
-106.894
-72541.8
-127.107
-72468.6
-146.952
-72385.8
-166.43
-72293.3
-185.541
-72191.5
-204.287
-72080.5
-222.669
-71960.5
-240.689
-71831.7
-258.347
-71694.2
-275.646
-71548.2
-292.587
-71394
-309.172
-71231.6
-325.404
-71061.3
-341.284
-70883.2
-356.816
-70697.6
-372.001
-70504.5
-386.842
-70304.1
-401.342
-70096.7
-415.503
-69882.4
-429.33
-69661.3
-442.823
-69433.7
-455.988
-69199.6
-468.826
-68959.3
-481.342
-68712.8
-493.538
-68460.5
-505.419
-68202.3
-516.987
-67938.5
-528.246
-67669.2
-539.2
-67394.6
-549.852
-67114.9
-560.207
-66830.1
-570.268
-66540.4
-580.038
-66245.9
-589.523
-65946.9
-598.726
-65643.4
-607.65
-65335.6
-616.3
-65023.5
-624.68
-64707.5
-632.795
-64387.4
-640.647
-64063.6
-648.241
-63736.2
-655.581
-63405.1
-662.672
-63070.7
-669.518
-62732.9
-676.122
-62392
-682.489
-62048
-688.622
-61701
-694.527
-61351.2
-700.208
-60998.6
-705.667
-60643.5
-710.91
-60285.8
-715.941
-59925.7
-720.763
-59563.3
-725.381
-59198.7
-729.799
-58831.9
-734.02
-58463.2
-738.05
-58092.5
-741.891
-57720
-745.548
-57345.7
-749.025
-56969.8
-752.325
-56592.3
-755.453
-56213.4
-758.412
-55833
-761.206
-55451.4
-763.839
-55068.4
-766.314
-54684.4
-768.636
-54299.2
-770.807
-53913
-772.832
-53525.9
-774.715
-53137.8
-776.457
-52749
-778.064
-52359.5
-779.539
-51969.2
-780.884
-51578.4
-782.104
-51187
-783.201
-50795.1
-784.18
-50402.7
-785.042
-50010
-785.792
-49617
-786.432
-49223.7
-786.966
-48830.1
-787.396
-48436.4
-787.726
-48042.6
-787.959
-47648.7
-788.097
-47254.8
-788.143
-46860.9
-788.1
-46467
-787.972
-46073.3
-787.76
-45679.7
-787.467
-45286.3
-787.096
-44893.1
-786.65
-44500.1
-786.131
-44107.4
-785.541
-43715.1
-784.884
-43323.1
-784.16
-42931.5
-783.374
-42540.3
-782.527
-42149.6
-781.621
-41759.3
-780.659
-41369.6
-779.643
-40980.4
-778.574
-40591.7
-777.456
-40203.6
-776.29
-39816.1
-775.078
-39429.2
-773.823
-39043
-772.525
-38657.4
-771.187
-38272.6
-769.812
-37888.4
-768.4
-37504.9
-766.953
-37122.2
-765.474
-36740.2
-763.963
-36359
-762.424
-35978.5
-760.856
-35598.9
-759.263
-35220.1
-757.645
-34842
-756.004
-34464.8
-754.341
-34088.4
-752.658
-33712.9
-750.957
-33338.3
-749.238
-32964.4
-747.504
-32591.5
-745.755
-32219.4
-743.993
-31848.3
-742.219
-31478
-740.434
-31108.5
-738.64
-30740
-736.838
-30372.4
-735.028
-30005.7
-733.213
-29639.9
-731.392
-29275
-729.568
-28911
-727.741
-28547.9
-725.912
-28185.8
-724.083
-27824.5
-722.253
-27464.1
-720.425
-27104.7
-718.599
-26746.1
-716.776
-26388.5
-714.957
-26031.8
-713.143
-25675.9
-711.334
-25321
-709.532
-24966.9
-707.737
-24613.8
-705.95
-24261.5
-704.171
-23910.1
-702.402
-23559.6
-700.643
-23209.9
-698.895
-22861.1
-697.159
-22513.2
-695.434
-22166.1
-693.723
-21819.9
-692.025
-21474.5
-690.341
-21129.9
-688.671
-20786.1
-687.017
-20443.2
-685.378
-20101.1
-683.756
-19759.7
-682.151
-19419.2
-680.563
-19079.4
-678.992
-18740.4
-677.44
-18402.2
-675.907
-18064.7
-674.393
-17728
-672.898
-17392
-671.424
-17056.7
-669.97
-16722.1
-668.536
-16388.3
-667.124
-16055.1
-665.734
-15722.6
-664.366
-15390.8
-663.02
-15059.6
-661.697
-14729.1
-660.397
-14399.2
-659.12
-14069.9
-657.866
-13741.3
-656.637
-13413.2
-655.432
-13085.8
-654.251
-12758.9
-653.096
-12432.5
-651.965
-12106.7
-650.86
-11781.5
-649.78
-11456.8
-648.726
-11132.6
-647.697
-10808.9
-646.696
-10485.6
-645.72
-10162.9
-644.771
-9840.57
-643.849
-9518.72
-642.954
-9197.29
-642.087
-8876.29
-641.246
-8555.69
-640.434
-8235.48
-639.648
-7915.64
-638.891
-7596.17
-638.162
-7277.05
-637.461
-6958.26
-636.788
-6639.79
-636.143
-6321.62
-635.527
-6003.75
-634.94
-5686.16
-634.382
-5368.83
-633.852
-5051.74
-633.352
-4734.9
-632.881
-4418.27
-632.44
-4101.84
-632.028
-3785.61
-631.646
-3469.55
-631.294
-3153.65
-630.973
-2837.89
-630.683
-2522.27
-630.424
-2206.75
-630.197
-1891.33
-630.001
-1576
-629.837
-1260.73
-629.705
-945.51
-629.604
-630.325
-629.533
-315.16
-629.492
-629.479
-2091.14
6347.95
-4158.08
6269.82
-6177.69
6112.94
-8131.94
5897.33
-10009.4
5646.64
-11805.3
5383.3
-13520.2
5126
-15158.9
4887.7
-16728.7
4675.7
-18237.9
4492.48
-19694.9
4337.09
-21107.3
4206.5
-22481.8
4096.77
-23823.7
4003.73
-25137.5
3923.54
-26426.4
3852.88
-27692.9
3789.02
-28938.8
3729.83
-30165.2
3673.68
-31372.8
3619.38
-32562.3
3566.11
-33733.8
3513.31
-34887.6
3460.6
-36023.5
3407.77
-37141.6
3354.71
-38241.8
3301.36
-39324
3247.73
-40388.3
3193.83
-41434.5
3139.69
-42462.5
3085.34
-43472.4
3030.83
-44464
2976.18
-45437.4
2921.43
-46392.5
2866.61
-47329.3
2811.76
-48247.8
2756.89
-49148.1
2702.02
-50030
2647.19
-50893.8
2592.41
-51739.3
2537.7
-52566.5
2483.08
-53375.7
2428.56
-54166.7
2374.16
-54939.6
2319.89
-55694.5
2265.78
-56431.4
2211.83
-57150.4
2158.05
-57851.6
2104.47
-58534.9
2051.1
-59200.6
1997.94
-59848.6
1945.01
-60479.1
1892.33
-61092.1
1839.9
-61687.8
1787.75
-62266.1
1735.87
-62827.3
1684.28
-63371.4
1632.99
-63898.5
1582.02
-64408.7
1531.38
-64902.2
1481.07
-65379
1431.11
-65839.3
1381.5
-66283.2
1332.27
-66710.8
1283.41
-67122.3
1234.94
-67517.7
1186.87
-67897.3
1139.2
-68261.2
1091.95
-68609.4
1045.13
-68942.2
998.733
-69259.6
952.782
-69562
907.28
-69849.3
862.236
-70121.7
817.657
-70379.5
773.55
-70622.7
729.922
-70851.6
686.779
-71066.2
644.128
-71266.9
601.976
-71453.6
560.326
-71626.6
519.186
-71786.1
478.56
-71932.3
438.453
-72065.2
398.869
-72185.1
359.812
-72292.2
321.287
-72386.7
283.297
-72468.7
245.845
-72538.4
208.934
-72595.9
172.567
-72641.6
136.746
-72675.4
101.472
-72697.8
66.7484
-72708.7
32.5757
-72708.4
-1.0449
-72697.1
-34.1125
-72675
-66.6266
-72642.3
-98.587
-72599.1
-129.994
-72545.6
-160.847
-72482
-191.147
-72408.5
-220.896
-72325.3
-250.094
-72232.5
-278.742
-72130.4
-306.842
-72019.1
-334.397
-71898.8
-361.407
-71769.7
-387.876
-71631.9
-413.805
-71485.7
-439.198
-71331.2
-464.058
-71168.6
-488.388
-70998.1
-512.19
-70819.9
-535.47
-70634
-558.23
-70440.7
-580.474
-70240.2
-602.206
-70032.7
-623.432
-69818.2
-644.154
-69597
-664.377
-69369.2
-684.107
-69135
-703.349
-68894.6
-722.106
-68648.1
-740.384
-68395.6
-758.188
-68137.4
-775.524
-67873.6
-792.397
-67604.3
-808.812
-67329.6
-824.776
-67049.8
-840.293
-66765
-855.369
-66475.3
-870.011
-66180.9
-884.223
-65881.9
-898.013
-65578.4
-911.385
-65270.6
-924.346
-64958.6
-936.903
-64642.6
-949.061
-64322.7
-960.825
-63999
-972.204
-63671.6
-983.201
-63340.6
-993.825
-63006.3
-1004.08
-62668.6
-1013.97
-62327.8
-1023.51
-61983.9
-1032.7
-61637.1
-1041.55
-61287.4
-1050.06
-60935
-1058.23
-60580
-1066.09
-60222.5
-1073.62
-59862.6
-1080.85
-59500.4
-1087.76
-59135.9
-1094.38
-58769.4
-1100.7
-58400.8
-1106.74
-58030.4
-1112.49
-57658.1
-1117.96
-57284
-1123.17
-56908.4
-1128.11
-56531.1
-1132.79
-56152.4
-1137.22
-55772.3
-1141.41
-55390.9
-1145.35
-55008.2
-1149.05
-54624.4
-1152.53
-54239.5
-1155.78
-53853.6
-1158.81
-53466.7
-1161.63
-53079
-1164.23
-52690.5
-1166.64
-52301.2
-1168.84
-51911.3
-1170.85
-51520.7
-1172.68
-51129.6
-1174.32
-50738
-1175.78
-50346
-1177.07
-49953.6
-1178.19
-49560.9
-1179.14
-49167.9
-1179.94
-48774.7
-1180.58
-48381.4
-1181.07
-47987.9
-1181.41
-47594.3
-1181.61
-47200.7
-1181.68
-46807.2
-1181.61
-46413.7
-1181.41
-46020.3
-1181.09
-45627.1
-1180.65
-45234
-1180.09
-44841.1
-1179.41
-44448.6
-1178.63
-44056.3
-1177.74
-43664.3
-1176.75
-43272.7
-1175.67
-42881.5
-1174.48
-42490.7
-1173.21
-42100.3
-1171.85
-41710.4
-1170.4
-41321.1
-1168.88
-40932.2
-1167.27
-40543.9
-1165.59
-40156.2
-1163.84
-39769.1
-1162.02
-39382.7
-1160.13
-38996.8
-1158.19
-38611.7
-1156.18
-38227.2
-1154.11
-37843.4
-1151.99
-37460.3
-1149.82
-37078
-1147.6
-36696.4
-1145.33
-36315.6
-1143.02
-35935.6
-1140.67
-35556.3
-1138.28
-35177.9
-1135.85
-34800.2
-1133.39
-34423.5
-1130.89
-34047.5
-1128.37
-33672.4
-1125.82
-33298.1
-1123.24
-32924.7
-1120.64
-32552.2
-1118.01
-32180.5
-1115.37
-31809.7
-1112.71
-31439.9
-1110.03
-31070.9
-1107.34
-30702.8
-1104.63
-30335.6
-1101.92
-29969.3
-1099.2
-29603.9
-1096.46
-29239.4
-1093.73
-28875.8
-1090.99
-28513.1
-1088.24
-28151.4
-1085.5
-27790.5
-1082.76
-27430.6
-1080.01
-27071.6
-1077.28
-26713.4
-1074.54
-26356.2
-1071.81
-25999.9
-1069.09
-25644.5
-1066.38
-25289.9
-1063.68
-24936.3
-1060.98
-24583.5
-1058.3
-24231.7
-1055.64
-23880.7
-1052.98
-23530.6
-1050.34
-23181.3
-1047.72
-22833
-1045.12
-22485.4
-1042.53
-22138.8
-1039.96
-21792.9
-1037.42
-21447.9
-1034.89
-21103.8
-1032.39
-20760.4
-1029.91
-20417.9
-1027.45
-20076.2
-1025.02
-19735.3
-1022.61
-19395.1
-1020.23
-19055.8
-1017.87
-18717.2
-1015.55
-18379.4
-1013.25
-18042.3
-1010.98
-17706
-1008.73
-17370.4
-1006.52
-17035.5
-1004.34
-16701.3
-1002.19
-16367.9
-1000.08
-16035.1
-997.992
-15703
-995.94
-15371.6
-993.922
-15040.8
-991.937
-14710.7
-989.987
-14381.2
-988.073
-14052.4
-986.193
-13724.1
-984.35
-13396.5
-982.543
-13069.4
-980.773
-12742.9
-979.04
-12417
-977.344
-12091.6
-975.686
-11766.8
-974.067
-11442.5
-972.486
-11118.6
-970.945
-10795.3
-969.443
-10472.5
-967.98
-10150.2
-966.557
-9828.26
-965.175
-9506.8
-963.833
-9185.78
-962.532
-8865.17
-961.271
-8544.97
-960.053
-8225.16
-958.875
-7905.72
-957.74
-7586.65
-956.646
-7267.93
-955.595
-6949.53
-954.586
-6631.46
-953.62
-6313.7
-952.696
-5996.22
-951.816
-5679.03
-950.978
-5362.09
-950.184
-5045.41
-949.434
-4728.96
-948.728
-4412.72
-948.066
-4096.7
-947.448
-3780.86
-946.876
-3465.2
-946.348
-3149.69
-945.867
-2834.33
-945.432
-2519.1
-945.044
-2203.98
-944.702
-1888.96
-944.409
-1574.02
-944.163
-1259.15
-943.965
-944.325
-943.814
-629.535
-943.709
-314.764
-943.648
-943.628
-2056.75
8403.91
-4092.24
8304.52
-6086.71
8106.62
-8024.27
7834.08
-9894.04
7515.59
-11690.5
7178.9
-13412.7
6847.39
-15063.5
6537.7
-16648.2
6259.61
-18173.4
6016.9
-19646.1
5809
-21073
5632.65
-22460.2
5483.21
-23812.9
5355.69
-25135.4
5245.33
-26431.2
5147.94
-27702.9
5060.02
-28952.5
4978.75
-30181.5
4901.97
-31390.9
4828.07
-32581.3
4755.87
-33753.3
4684.56
-34907
4613.61
-36042.6
4542.67
-37160.1
4471.56
-38259.6
4400.17
-39341.1
4328.47
-40404.4
4256.46
-41449.6
4184.17
-42476.6
4111.64
-43485.3
4038.9
-44475.8
3966
-45448.1
3892.98
-46402
3819.88
-47337.7
3746.74
-48255.1
3673.57
-49154.2
3600.43
-50035
3527.33
-50897.6
3454.3
-51741.9
3381.36
-52568
3308.54
-53376
3235.86
-54165.9
3163.34
-54937.7
3091.01
-55691.5
3018.87
-56427.3
2946.96
-57145.2
2875.28
-57845.2
2803.86
-58527.5
2732.71
-59192.1
2661.85
-59839
2591.3
-60468.4
2521.08
-61080.4
2451.2
-61674.9
2381.67
-62252.2
2312.52
-62812.4
2243.76
-63355.4
2175.4
-63881.5
2107.46
-64390.7
2039.96
-64883.2
1972.9
-65359
1906.31
-65818.3
1840.19
-66261.2
1774.56
-66687.9
1709.44
-67098.4
1644.84
-67492.9
1580.76
-67871.5
1517.23
-68234.4
1454.25
-68581.8
1391.84
-68913.6
1330
-69230.2
1268.76
-69531.6
1208.11
-69818.1
1148.08
-70089.6
1088.66
-70346.6
1029.88
-70588.9
971.73
-70817
914.231
-71030.8
857.387
-71230.6
801.208
-71416.5
745.7
-71588.7
690.871
-71747.5
636.727
-71892.8
583.275
-72025
530.522
-72144.2
478.472
-72250.6
427.13
-72344.3
376.502
-72425.6
326.591
-72494.6
277.402
-72551.4
228.938
-72596.4
181.201
-72629.6
134.196
-72651.3
87.9233
-72661.6
42.3855
-72660.7
-2.41602
-72648.8
-46.4802
-72626.1
-89.8064
-72592.8
-132.394
-72549
-174.244
-72495
-215.355
-72430.8
-255.73
-72356.8
-295.369
-72273.1
-334.273
-72179.8
-372.444
-72077.2
-409.885
-71965.4
-446.599
-71844.7
-482.586
-71715.1
-517.852
-71576.9
-552.399
-71430.3
-586.231
-71275.4
-619.352
-71112.4
-651.766
-70941.5
-683.477
-70762.9
-714.491
-70576.7
-744.812
-70383.1
-774.446
-70182.2
-803.398
-69974.3
-831.673
-69759.6
-859.278
-69538.1
-886.219
-69310
-912.501
-69075.6
-938.132
-68834.9
-963.117
-68588.2
-987.464
-68335.5
-1011.18
-68077
-1034.27
-67813
-1056.75
-67543.5
-1078.61
-67268.7
-1099.87
-66988.8
-1120.54
-66703.8
-1140.62
-66414
-1160.12
-66119.4
-1179.05
-65820.3
-1197.41
-65516.7
-1215.22
-65208.8
-1232.48
-64896.8
-1249.2
-64580.7
-1265.39
-64260.7
-1281.06
-63936.9
-1296.21
-63609.5
-1310.85
-63278.6
-1325
-62944.2
-1338.65
-62606.6
-1351.83
-62265.7
-1364.52
-61921.9
-1376.76
-61575.1
-1388.53
-61225.5
-1399.86
-60873.1
-1410.75
-60518.2
-1421.2
-60160.7
-1431.23
-59800.9
-1440.85
-59438.8
-1450.05
-59074.4
-1458.86
-58708
-1467.27
-58339.6
-1475.3
-57969.2
-1482.96
-57597.1
-1490.25
-57223.2
-1497.17
-56847.6
-1503.75
-56470.6
-1509.98
-56092
-1515.87
-55712.1
-1521.43
-55330.8
-1526.68
-54948.4
-1531.6
-54564.8
-1536.22
-54180.1
-1540.55
-53794.4
-1544.57
-53407.7
-1548.32
-53020.2
-1551.78
-52631.9
-1554.98
-52242.9
-1557.91
-51853.2
-1560.58
-51462.9
-1563
-51072.1
-1565.17
-50680.7
-1567.11
-50289
-1568.82
-49896.9
-1570.3
-49504.4
-1571.57
-49111.7
-1572.62
-48718.8
-1573.47
-48325.8
-1574.11
-47932.6
-1574.56
-47539.3
-1574.82
-47146.1
-1574.9
-46752.8
-1574.8
-46359.6
-1574.53
-45966.6
-1574.1
-45573.6
-1573.5
-45180.9
-1572.75
-44788.4
-1571.84
-44396.2
-1570.79
-44004.2
-1569.6
-43612.6
-1568.28
-43221.3
-1566.82
-42830.4
-1565.24
-42440
-1563.54
-42050
-1561.72
-41660.5
-1559.79
-41271.5
-1557.74
-40883
-1555.6
-40495.1
-1553.36
-40107.8
-1551.02
-39721
-1548.59
-39334.9
-1546.07
-38949.5
-1543.47
-38564.7
-1540.79
-38180.6
-1538.03
-37797.2
-1535.2
-37414.5
-1532.3
-37032.6
-1529.34
-36651.4
-1526.31
-36271
-1523.23
-35891.3
-1520.09
-35512.5
-1516.9
-35134.5
-1513.66
-34757.2
-1510.37
-34380.8
-1507.05
-34005.3
-1503.68
-33630.6
-1500.27
-33256.7
-1496.83
-32883.7
-1493.36
-32511.6
-1489.86
-32140.4
-1486.33
-31770
-1482.78
-31400.5
-1479.21
-31031.9
-1475.62
-30664.2
-1472.02
-30297.5
-1468.4
-29931.6
-1464.76
-29566.6
-1461.12
-29202.5
-1457.47
-28839.4
-1453.82
-28477.1
-1450.16
-28115.8
-1446.5
-27755.3
-1442.84
-27395.8
-1439.18
-27037.2
-1435.53
-26679.5
-1431.89
-26322.7
-1428.25
-25966.8
-1424.62
-25611.8
-1421
-25257.7
-1417.4
-24904.5
-1413.81
-24552.1
-1410.23
-24200.7
-1406.68
-23850.1
-1403.14
-23500.5
-1399.62
-23151.6
-1396.13
-22803.7
-1392.65
-22456.6
-1389.21
-22110.3
-1385.78
-21764.9
-1382.39
-21420.3
-1379.02
-21076.6
-1375.68
-20733.7
-1372.38
-20391.6
-1369.1
-20050.3
-1365.86
-19709.8
-1362.65
-19370.1
-1359.47
-19031.1
-1356.33
-18693
-1353.23
-18355.6
-1350.16
-18018.9
-1347.14
-17683
-1344.15
-17347.9
-1341.2
-17013.4
-1338.29
-16679.7
-1335.43
-16346.6
-1332.61
-16014.3
-1329.83
-15682.6
-1327.09
-15351.6
-1324.4
-15021.3
-1321.76
-14691.6
-1319.16
-14362.5
-1316.61
-14034.1
-1314.1
-13706.2
-1311.64
-13379
-1309.23
-13052.4
-1306.87
-12726.3
-1304.56
-12400.8
-1302.3
-12075.8
-1300.1
-11751.4
-1297.94
-11427.5
-1295.83
-11104.1
-1293.77
-10781.2
-1291.77
-10458.8
-1289.82
-10136.9
-1287.93
-9815.39
-1286.08
-9494.36
-1284.29
-9173.75
-1282.56
-8853.56
-1280.88
-8533.78
-1279.26
-8214.38
-1277.69
-7895.36
-1276.17
-7576.7
-1274.72
-7258.39
-1273.31
-6940.42
-1271.97
-6622.76
-1270.68
-6305.41
-1269.45
-5988.35
-1268.28
-5671.57
-1267.16
-5355.05
-1266.1
-5038.78
-1265.1
-4722.75
-1264.16
-4406.93
-1263.28
-4091.32
-1262.45
-3775.89
-1261.69
-3460.64
-1260.99
-3145.56
-1260.35
-2830.61
-1259.77
-2515.79
-1259.25
-2201.09
-1258.79
-1886.48
-1258.4
-1571.96
-1258.08
-1257.5
-1257.81
-943.087
-1257.61
-628.711
-1257.47
-314.354
-1257.39
-1257.37
-2028.15
10431.3
-4037.42
10313
-6010.88
10079.3
-7934.4
9756.79
-9797.7
9378.06
-11594.8
8975.13
-13323.5
8575.34
-14985.3
8198.64
-16583.7
7857.15
-18123.7
7556.13
-19611.1
7295.69
-21051.9
7072.63
-22451.4
6882
-23814.7
6718.23
-25146
6575.87
-26448.7
6449.99
-27725.8
6336.4
-28979.5
6231.68
-30211.3
6133.13
-31422.6
6038.67
-32614.3
5946.8
-33786.8
5856.41
-34940.7
5766.77
-36076.1
5677.38
-37193.2
5587.96
-38292
5498.33
-39372.7
5408.42
-40435.1
5318.2
-41479.3
5227.69
-42505.3
5136.91
-43513
5045.91
-44502.4
4954.73
-45473.5
4863.42
-46426.4
4772.02
-47360.9
4680.57
-48277.1
4589.11
-49175
4497.68
-50054.7
4406.3
-50916.1
4315.02
-51759.3
4223.86
-52584.3
4132.84
-53391.1
4042.01
-54179.8
3951.37
-54950.4
3860.97
-55703
3770.82
-56437.7
3680.94
-57154.4
3591.36
-57853.4
3502.1
-58534.5
3413.19
-59197.9
3324.63
-59843.8
3236.47
-60472.1
3148.71
-61082.9
3061.38
-61676.4
2974.49
-62252.6
2888.07
-62811.6
2802.14
-63353.6
2716.72
-63878.5
2631.81
-64386.7
2547.45
-64878.1
2463.66
-65352.8
2380.44
-65811.1
2297.81
-66253
2215.8
-66678.6
2134.42
-67088
2053.69
-67481.5
1973.62
-67859.1
1894.23
-68221
1815.53
-68567.3
1737.54
-68898.2
1660.27
-69213.8
1583.74
-69514.2
1507.96
-69799.6
1432.94
-70070.3
1358.7
-70326.2
1285.24
-70567.6
1212.58
-70794.7
1140.74
-71007.6
1069.71
-71206.5
999.512
-71391.5
930.154
-71562.8
861.646
-71720.6
793.995
-71865.1
727.208
-71996.4
661.295
-72114.7
596.261
-72220.2
532.114
-72313.1
468.858
-72393.5
406.499
-72461.7
345.043
-72517.8
284.493
-72561.9
224.853
-72594.4
166.127
-72615.2
108.318
-72624.8
51.4266
-72623.1
-4.54377
-72610.5
-59.5923
-72587.1
-113.718
-72553
-166.921
-72508.5
-219.201
-72453.8
-270.558
-72389
-320.994
-72314.3
-370.509
-72229.9
-419.107
-72136
-466.788
-72032.7
-513.557
-71920.3
-559.415
-71799
-604.367
-71668.8
-648.416
-71530.1
-691.567
-71382.9
-733.824
-71227.5
-775.191
-71063.9
-815.676
-70892.5
-855.282
-70713.4
-894.016
-70526.7
-931.885
-70332.6
-968.894
-70131.3
-1005.05
-69923
-1040.36
-69707.8
-1074.84
-69485.9
-1108.48
-69257.4
-1141.3
-69022.6
-1173.31
-68781.5
-1204.51
-68534.4
-1234.91
-68281.4
-1264.52
-68022.6
-1293.35
-67758.2
-1321.41
-67488.4
-1348.71
-67213.3
-1375.26
-66933.1
-1401.06
-66647.9
-1426.13
-66357.8
-1450.48
-66063
-1474.11
-65763.7
-1497.03
-65459.9
-1519.27
-65151.8
-1540.81
-64839.5
-1561.69
-64523.3
-1581.89
-64203.1
-1601.45
-63879.2
-1620.36
-63551.6
-1638.64
-63220.6
-1656.29
-62886.1
-1673.34
-62548.4
-1689.78
-62207.5
-1705.62
-61863.5
-1720.89
-61516.7
-1735.59
-61167
-1749.72
-60814.6
-1763.3
-60459.6
-1776.35
-60102.2
-1788.86
-59742.3
-1800.86
-59380.2
-1812.34
-59015.9
-1823.33
-58649.5
-1833.82
-58281.1
-1843.84
-57910.8
-1853.38
-57538.7
-1862.47
-57164.8
-1871.11
-56789.4
-1879.31
-56412.4
-1887.08
-56033.9
-1894.42
-55654.1
-1901.36
-55273
-1907.89
-54890.6
-1914.03
-54507.1
-1919.79
-54122.6
-1925.17
-53737
-1930.19
-53350.5
-1934.85
-52963.2
-1939.17
-52575.1
-1943.14
-52186.2
-1946.79
-51796.7
-1950.11
-51406.6
-1953.13
-51016
-1955.83
-50624.9
-1958.24
-50233.3
-1960.36
-49841.4
-1962.2
-49449.2
-1963.77
-49056.8
-1965.07
-48664.1
-1966.11
-48271.3
-1966.91
-47878.3
-1967.46
-47485.3
-1967.77
-47092.3
-1967.86
-46699.4
-1967.73
-46306.5
-1967.38
-45913.7
-1966.82
-45521
-1966.07
-45128.6
-1965.12
-44736.4
-1963.98
-44344.4
-1962.66
-43952.8
-1961.16
-43561.5
-1959.49
-43170.5
-1957.67
-42780
-1955.68
-42389.9
-1953.54
-42000.2
-1951.26
-41611
-1948.84
-41222.3
-1946.28
-40834.2
-1943.59
-40446.6
-1940.78
-40059.7
-1937.85
-39673.3
-1934.8
-39287.5
-1931.65
-38902.4
-1928.39
-38518
-1925.04
-38134.3
-1921.58
-37751.2
-1918.04
-37368.9
-1914.41
-36987.4
-1910.71
-36606.5
-1906.92
-36226.5
-1903.06
-35847.2
-1899.13
-35468.8
-1895.14
-35091.1
-1891.09
-34714.3
-1886.97
-34338.3
-1882.81
-33963.1
-1878.6
-33588.8
-1874.34
-33215.3
-1870.03
-32842.7
-1865.69
-32471
-1861.31
-32100.1
-1856.9
-31730.2
-1852.46
-31361.1
-1848
-30992.9
-1843.51
-30625.6
-1839
-30259.3
-1834.47
-29893.8
-1829.93
-29529.2
-1825.37
-29165.5
-1820.81
-28802.8
-1816.24
-28441
-1811.66
-28080
-1807.09
-27720
-1802.51
-27360.9
-1797.94
-27002.7
-1793.37
-26645.4
-1788.82
-26289
-1784.27
-25933.5
-1779.73
-25578.9
-1775.21
-25225.2
-1770.7
-24872.5
-1766.21
-24520.5
-1761.75
-24169.5
-1757.3
-23819.4
-1752.88
-23470.1
-1748.48
-23121.7
-1744.11
-22774.2
-1739.77
-22427.5
-1735.46
-22081.7
-1731.18
-21736.7
-1726.94
-21392.5
-1722.73
-21049.2
-1718.56
-20706.7
-1714.42
-20365
-1710.33
-20024.2
-1706.27
-19684.1
-1702.26
-19344.8
-1698.29
-19006.3
-1694.37
-18668.5
-1690.49
-18331.6
-1686.66
-17995.3
-1682.88
-17659.9
-1679.14
-17325.1
-1675.46
-16991.1
-1671.82
-16657.8
-1668.24
-16325.2
-1664.72
-15993.2
-1661.24
-15662
-1657.82
-15331.4
-1654.46
-15001.5
-1651.15
-14672.2
-1647.91
-14343.6
-1644.72
-14015.6
-1641.59
-13688.2
-1638.51
-13361.4
-1635.5
-13035.1
-1632.55
-12709.5
-1629.67
-12384.4
-1626.84
-12059.9
-1624.08
-11735.9
-1621.38
-11412.4
-1618.75
-11089.4
-1616.18
-10766.9
-1613.68
-10445
-1611.24
-10123.4
-1608.87
-9802.38
-1606.57
-9481.76
-1604.34
-9161.58
-1602.17
-8841.81
-1600.07
-8522.44
-1598.04
-8203.47
-1596.08
-7884.87
-1594.19
-7566.63
-1592.36
-7248.74
-1590.61
-6931.19
-1588.93
-6613.95
-1587.32
-6297.02
-1585.78
-5980.39
-1584.32
-5664.02
-1582.92
-5347.93
-1581.6
-5032.08
-1580.35
-4716.46
-1579.17
-4401.06
-1578.07
-4085.87
-1577.04
-3770.86
-1576.09
-3456.03
-1575.21
-3141.36
-1574.41
-2826.84
-1573.68
-2512.44
-1573.04
-2198.16
-1572.47
-1883.97
-1571.98
-1569.86
-1571.57
-1255.82
-1571.24
-941.83
-1570.99
-627.872
-1570.82
-313.934
-1570.72
-1570.69
-2000.18
12430.7
-3983.98
12296
-5936.99
12031.5
-7846.82
11665.8
-9703.8
11234.2
-11501.6
10772.1
-13237.2
10310.1
-14910.2
9870.87
-16522.8
9468.92
-18078.5
9111.01
-19581.8
8798.18
-21037.5
8527.65
-22450.7
8294.43
-23825.9
8092.65
-25167.1
7916.38
-26478
7760.17
-27761.6
7619.21
-29020.1
7489.54
-30255.6
7367.92
-31469.5
7251.86
-32662.9
7139.44
-33836.4
7029.29
-34990.8
6920.43
-36126.3
6812.19
-37243.2
6704.15
-38341.6
6596.05
-39421.6
6487.74
-40483.3
6379.18
-41526.6
6270.34
-42551.7
6161.24
-43558.4
6051.92
-44546.7
5942.42
-45516.8
5832.78
-46468.5
5723.05
-47401.9
5613.28
-48317
5503.5
-49213.8
5393.77
-50092.2
5284.11
-50952.5
5174.56
-51794.5
5065.17
-52618.3
4955.96
-53423.9
4846.96
-54211.4
4738.21
-54980.9
4629.74
-55732.3
4521.56
-56465.7
4413.72
-57181.3
4306.24
-57879
4199.15
-58559
4092.47
-59221.2
3986.22
-59865.8
3880.44
-60492.9
3775.15
-61102.6
3670.36
-61694.8
3566.12
-62269.9
3462.44
-62827.7
3359.34
-63368.5
3256.84
-63892.3
3154.98
-64399.2
3053.77
-64889.4
2953.23
-65363
2853.39
-65820.1
2754.26
-66260.8
2655.87
-66685.2
2558.24
-67093.5
2461.38
-67485.8
2365.32
-67862.3
2270.07
-68223
2175.65
-68568.2
2082.09
-68897.9
1989.39
-69212.3
1897.58
-69511.6
1806.67
-69795.9
1716.67
-70065.4
1627.6
-70320.2
1539.48
-70560.5
1452.32