/*--------------------------------*- C++ -*----------------------------------*\
| =========                 |                                                 |
| \\      /  F ield         | OpenFOAM: The Open Source CFD Toolbox           |
|  \\    /   O peration     | Version:  2212                                  |
|   \\  /    A nd           | Website:  www.openfoam.com                      |
|    \\/     M anipulation  |                                                 |
\*---------------------------------------------------------------------------*/
FoamFile
{
    version     2.0;
    format      ascii;
    arch        "LSB;label=32;scalar=64";
    class       volScalarField;
    location    "170";
    object      p_rgh;
}
// * * * * * * * * * * * * * * * * * * * * * * * * * * * * * * * * * * * * * //

dimensions      [1 -1 -2 0 0 0 0];

internalField   nonuniform List<scalar> 
204800
(
-5.99272
-5.98902
-5.98166
-5.97067
-5.95601
-5.93772
-5.91578
-5.89023
-5.86106
-5.82833
-5.79203
-5.75222
-5.70891
-5.66215
-5.61195
-5.55836
-5.50137
-5.44103
-5.37734
-5.31031
-5.23997
-5.16631
-5.08934
-5.00906
-4.92547
-4.83855
-4.7483
-4.6547
-4.55774
-4.45739
-4.35365
-4.24649
-4.1359
-4.02184
-3.90431
-3.7833
-3.65878
-3.53074
-3.39918
-3.26409
-3.12547
-2.98333
-2.83765
-2.68846
-2.53577
-2.37958
-2.21992
-2.0568
-1.89026
-1.72031
-1.547
-1.37035
-1.1904
-1.00719
-0.820776
-0.631193
-0.438495
-0.242735
-0.0439682
0.157746
0.362347
0.56977
0.779951
0.992821
1.20831
1.42635
1.64686
1.86977
2.095
2.32247
2.55211
2.78383
3.01756
3.2532
3.49068
3.72991
3.97081
4.2133
4.45728
4.70268
4.94942
5.19739
5.44653
5.69674
5.94795
6.20007
6.45303
6.70672
6.96109
7.21604
7.47151
7.7274
7.98365
8.24018
8.49692
8.75378
9.01071
9.26763
9.52448
9.78117
10.0377
10.2939
10.5497
10.8052
11.0602
11.3147
11.5686
11.8219
12.0745
12.3264
12.5775
12.8277
13.0771
13.3255
13.573
13.8194
14.0648
14.3091
14.5523
14.7942
15.035
15.2745
15.5128
15.7498
15.9854
16.2196
16.4525
16.684
16.914
17.1426
17.3696
17.5952
17.8193
18.0418
18.2627
18.4821
18.6999
18.9161
19.1307
19.3436
19.5549
19.7646
19.9726
20.1789
20.3835
20.5865
20.7878
20.9873
21.1852
21.3814
21.5759
21.7686
21.9597
22.149
22.3366
22.5226
22.7068
22.8892
23.07
23.2491
23.4265
23.6021
23.7761
23.9483
24.1189
24.2878
24.455
24.6205
24.7844
24.9466
25.1071
25.266
25.4232
25.5788
25.7328
25.8851
26.0359
26.185
26.3325
26.4784
26.6227
26.7655
26.9066
27.0463
27.1843
27.3209
27.4559
27.5893
27.7213
27.8518
27.9807
28.1082
28.2342
28.3587
28.4818
28.6034
28.7236
28.8424
28.9597
29.0757
29.1902
29.3034
29.4151
29.5255
29.6346
29.7423
29.8486
29.9537
30.0574
30.1598
30.2609
30.3607
30.4592
30.5565
30.6525
30.7472
30.8407
30.933
31.024
31.1139
31.2025
31.2899
31.3762
31.4612
31.5451
31.6279
31.7095
31.7899
31.8692
31.9474
32.0245
32.1004
32.1753
32.2491
32.3218
32.3934
32.464
32.5335
32.6019
32.6693
32.7357
32.801
32.8654
32.9287
32.991
33.0523
33.1126
33.1719
33.2303
33.2877
33.3441
33.3996
33.4541
33.5077
33.5604
33.6121
33.6629
33.7128
33.7617
33.8098
33.8569
33.9032
33.9486
33.9931
34.0367
34.0794
34.1213
34.1623
34.2025
34.2418
34.2803
34.3179
34.3547
34.3906
34.4257
34.46
34.4935
34.5261
34.558
34.589
34.6192
34.6487
34.6773
34.7051
34.7321
34.7584
34.7839
34.8086
34.8325
34.8556
34.8779
34.8995
34.9203
34.9404
34.9597
34.9782
34.996
35.013
35.0293
35.0448
35.0595
35.0735
35.0868
35.0993
35.1111
35.1221
35.1324
35.1419
35.1508
35.1588
35.1662
35.1728
35.1786
35.1838
35.1882
35.1918
35.1947
35.1969
35.1984
35.1991
-5.94407
-5.94067
-5.93375
-5.92342
-5.90963
-5.89242
-5.87176
-5.8477
-5.8202
-5.78928
-5.75494
-5.71719
-5.67601
-5.63143
-5.58343
-5.53202
-5.47719
-5.41896
-5.3573
-5.29223
-5.22374
-5.15182
-5.07647
-4.99767
-4.91543
-4.82974
-4.74058
-4.64795
-4.55184
-4.45224
-4.34915
-4.24255
-4.13244
-4.0188
-3.90164
-3.78094
-3.6567
-3.52892
-3.3976
-3.26273
-3.12432
-2.98237
-2.8369
-2.68791
-2.53542
-2.37943
-2.21998
-2.05709
-1.89077
-1.72105
-1.54798
-1.37157
-1.19188
-1.00893
-0.822786
-0.633478
-0.441063
-0.245593
-0.0471234
0.154287
0.358577
0.565684
0.775542
0.988082
1.20324
1.42093
1.64109
1.86365
2.08852
2.31563
2.5449
2.77625
3.00959
3.24485
3.48194
3.72078
3.96129
4.20337
4.44695
4.69194
4.93826
5.18582
5.43454
5.68433
5.93512
6.18681
6.43933
6.69259
6.94652
7.20103
7.45605
7.71151
7.96731
8.22339
8.47968
8.7361
8.99257
9.24904
9.50543
9.76167
10.0177
10.2735
10.5289
10.7839
11.0385
11.2925
11.546
11.7988
12.0509
12.3023
12.553
12.8028
13.0517
13.2996
13.5467
13.7926
14.0376
14.2814
14.5241
14.7656
15.006
15.2451
15.4829
15.7194
15.9546
16.1884
16.4208
16.6519
16.8814
17.1096
17.3362
17.5614
17.785
18.0071
18.2276
18.4466
18.664
18.8798
19.0939
19.3064
19.5173
19.7266
19.9342
20.1401
20.3444
20.5469
20.7478
20.947
21.1445
21.3403
21.5344
21.7268
21.9175
22.1064
22.2937
22.4792
22.6631
22.8452
23.0256
23.2044
23.3814
23.5567
23.7303
23.9022
24.0725
24.241
24.4079
24.5731
24.7366
24.8985
25.0587
25.2173
25.3742
25.5295
25.6832
25.8352
25.9856
26.1344
26.2816
26.4273
26.5713
26.7138
26.8547
26.994
27.1318
27.2681
27.4028
27.536
27.6677
27.7979
27.9266
28.0538
28.1796
28.3039
28.4267
28.5481
28.668
28.7865
28.9037
29.0194
29.1337
29.2466
29.3581
29.4683
29.5771
29.6846
29.7908
29.8956
29.9991
30.1013
30.2022
30.3018
30.4001
30.4972
30.593
30.6875
30.7808
30.8729
30.9638
31.0534
31.1419
31.2291
31.3152
31.4001
31.4838
31.5664
31.6478
31.7281
31.8072
31.8853
31.9622
32.038
32.1127
32.1863
32.2589
32.3303
32.4008
32.4701
32.5384
32.6057
32.6719
32.7371
32.8013
32.8645
32.9267
32.9879
33.0481
33.1073
33.1655
33.2228
33.2791
33.3345
33.3889
33.4424
33.4949
33.5465
33.5972
33.647
33.6959
33.7438
33.7909
33.8371
33.8823
33.9267
33.9703
34.0129
34.0547
34.0957
34.1357
34.175
34.2133
34.2509
34.2876
34.3235
34.3585
34.3927
34.4261
34.4587
34.4905
34.5214
34.5516
34.581
34.6095
34.6373
34.6643
34.6905
34.7159
34.7405
34.7644
34.7875
34.8098
34.8313
34.8521
34.8721
34.8914
34.9098
34.9276
34.9446
34.9608
34.9763
34.991
35.005
35.0182
35.0307
35.0424
35.0534
35.0637
35.0732
35.082
35.0901
35.0974
35.104
35.1098
35.115
35.1194
35.123
35.1259
35.1281
35.1296
35.1303
-5.95302
-5.94962
-5.94275
-5.93248
-5.91876
-5.90165
-5.88111
-5.85717
-5.8298
-5.79903
-5.76484
-5.72724
-5.68622
-5.64179
-5.59395
-5.54268
-5.48799
-5.42988
-5.36834
-5.30336
-5.23494
-5.16308
-5.08776
-5.00898
-4.92673
-4.841
-4.7518
-4.65909
-4.5629
-4.46319
-4.35997
-4.25324
-4.14297
-4.02917
-3.91184
-3.79096
-3.66654
-3.53857
-3.40706
-3.272
-3.13341
-2.99128
-2.84562
-2.69645
-2.54378
-2.38763
-2.22801
-2.06495
-1.89847
-1.7286
-1.55537
-1.37882
-1.19898
-1.0159
-0.829611
-0.640171
-0.447627
-0.252031
-0.0534396
0.14809
0.352495
0.559714
0.769681
0.982328
1.19758
1.41538
1.63564
1.85829
2.08325
2.31045
2.53981
2.77124
3.00466
3.24
3.47716
3.71607
3.95664
4.19879
4.44244
4.68749
4.93386
5.18148
5.43024
5.68009
5.93091
6.18265
6.43521
6.68851
6.94247
7.19702
7.45207
7.70755
7.96338
8.21948
8.47579
8.73222
8.98871
9.24519
9.50159
9.75784
10.0139
10.2696
10.525
10.7801
11.0346
11.2886
11.5421
11.7949
12.0471
12.2985
12.5491
12.7988
13.0477
13.2957
13.5426
13.7886
14.0335
14.2773
14.52
14.7615
15.0018
15.2408
15.4786
15.7151
15.9502
16.184
16.4164
16.6474
16.8769
17.105
17.3316
17.5567
17.7803
18.0023
18.2228
18.4417
18.659
18.8748
19.0889
19.3013
19.5122
19.7214
19.9289
20.1348
20.339
20.5415
20.7423
20.9414
21.1389
21.3346
21.5286
21.721
21.9116
22.1005
22.2877
22.4732
22.6569
22.839
23.0194
23.198
23.375
23.5502
23.7238
23.8957
24.0658
24.2343
24.4011
24.5663
24.7297
24.8915
25.0517
25.2102
25.3671
25.5223
25.6759
25.8278
25.9782
26.127
26.2741
26.4197
26.5636
26.7061
26.8469
26.9862
27.1239
27.2601
27.3948
27.5279
27.6596
27.7897
27.9184
28.0455
28.1712
28.2954
28.4182
28.5395
28.6594
28.7779
28.895
29.0106
29.1249
29.2377
29.3492
29.4594
29.5681
29.6756
29.7816
29.8864
29.9899
30.092
30.1929
30.2924
30.3907
30.4877
30.5835
30.678
30.7712
30.8633
30.9541
31.0437
31.1321
31.2193
31.3053
31.3902
31.4739
31.5564
31.6378
31.718
31.7971
31.8751
31.952
32.0278
32.1024
32.176
32.2485
32.32
32.3904
32.4597
32.5279
32.5952
32.6614
32.7266
32.7907
32.8539
32.916
32.9772
33.0373
33.0965
33.1547
33.212
33.2683
33.3236
33.378
33.4314
33.4839
33.5355
33.5862
33.6359
33.6848
33.7327
33.7798
33.8259
33.8712
33.9155
33.9591
34.0017
34.0435
34.0844
34.1244
34.1636
34.202
34.2395
34.2762
34.312
34.3471
34.3813
34.4147
34.4472
34.479
34.5099
34.5401
34.5694
34.598
34.6257
34.6527
34.6789
34.7043
34.7289
34.7527
34.7758
34.7981
34.8196
34.8404
34.8604
34.8796
34.8981
34.9158
34.9328
34.949
34.9645
34.9792
34.9932
35.0064
35.0189
35.0306
35.0416
35.0519
35.0614
35.0702
35.0783
35.0856
35.0922
35.098
35.1031
35.1075
35.1112
35.1141
35.1163
35.1177
35.1185
-5.93044
-5.92721
-5.92066
-5.91088
-5.8978
-5.88148
-5.86187
-5.83899
-5.81281
-5.78334
-5.75054
-5.7144
-5.6749
-5.63203
-5.58576
-5.53607
-5.48294
-5.42636
-5.3663
-5.30275
-5.23568
-5.16509
-5.09095
-5.01325
-4.93199
-4.84714
-4.75871
-4.66669
-4.57107
-4.47185
-4.36904
-4.26262
-4.15261
-4.039
-3.9218
-3.801
-3.67663
-3.54867
-3.41714
-3.28205
-3.14341
-3.00122
-2.8555
-2.70627
-2.55354
-2.39732
-2.23765
-2.07454
-1.90802
-1.73812
-1.56487
-1.3883
-1.20845
-1.02537
-0.839097
-0.649675
-0.457158
-0.261598
-0.0630495
0.138428
0.342775
0.549927
0.759819
0.972384
1.18755
1.40525
1.62541
1.84795
2.07279
2.29987
2.52909
2.76038
2.99367
3.22885
3.46586
3.70461
3.94502
4.18699
4.43046
4.67532
4.92151
5.16892
5.41749
5.66713
5.91774
6.16926
6.4216
6.67468
6.92841
7.18272
7.43753
7.69277
7.94835
8.2042
8.46025
8.71642
8.97265
9.22886
9.48499
9.74097
9.99672
10.2522
10.5073
10.7621
11.0163
11.2701
11.5232
11.7757
12.0276
12.2787
12.529
12.7784
13.027
13.2747
13.5213
13.767
14.0116
14.2551
14.4974
14.7386
14.9786
15.2173
15.4548
15.6909
15.9257
16.1592
16.3913
16.6219
16.8511
17.0789
17.3052
17.5299
17.7532
17.9749
18.1951
18.4137
18.6307
18.8461
19.0599
19.272
19.4825
19.6914
19.8986
20.1042
20.3081
20.5103
20.7108
20.9096
21.1067
21.3021
21.4959
21.6879
21.8782
22.0668
22.2537
22.4389
22.6223
22.8041
22.9842
23.1625
23.3392
23.5142
23.6874
23.859
24.0289
24.1971
24.3637
24.5285
24.6917
24.8532
25.0131
25.1714
25.3279
25.4829
25.6362
25.7879
25.938
26.0865
26.2334
26.3787
26.5225
26.6646
26.8052
26.9443
27.0817
27.2177
27.3521
27.4851
27.6165
27.7464
27.8748
28.0017
28.1272
28.2512
28.3737
28.4948
28.6145
28.7328
28.8496
28.9651
29.0791
29.1918
29.3031
29.413
29.5216
29.6288
29.7347
29.8393
29.9425
30.0445
30.1452
30.2445
30.3426
30.4395
30.535
30.6294
30.7225
30.8143
30.905
30.9944
31.0826
31.1697
31.2556
31.3403
31.4238
31.5062
31.5874
31.6675
31.7464
31.8243
31.901
31.9766
32.0512
32.1246
32.197
32.2683
32.3385
32.4077
32.4759
32.543
32.6091
32.6741
32.7381
32.8012
32.8632
32.9242
32.9843
33.0434
33.1015
33.1586
33.2148
33.27
33.3243
33.3776
33.43
33.4815
33.5321
33.5818
33.6305
33.6783
33.7253
33.7714
33.8165
33.8608
33.9042
33.9468
33.9885
34.0293
34.0693
34.1084
34.1467
34.1842
34.2208
34.2566
34.2915
34.3256
34.359
34.3915
34.4232
34.4541
34.4841
34.5134
34.5419
34.5696
34.5965
34.6227
34.648
34.6726
34.6964
34.7194
34.7417
34.7632
34.7839
34.8038
34.823
34.8415
34.8592
34.8761
34.8923
34.9077
34.9224
34.9364
34.9496
34.962
34.9738
34.9847
34.995
35.0045
35.0132
35.0213
35.0286
35.0352
35.041
35.0461
35.0505
35.0541
35.057
35.0592
35.0607
35.0614
-5.94538
-5.94216
-5.93568
-5.92599
-5.91304
-5.89688
-5.87744
-5.85477
-5.82882
-5.79959
-5.76705
-5.7312
-5.692
-5.64943
-5.60347
-5.5541
-5.50129
-5.44503
-5.38528
-5.32203
-5.25524
-5.18491
-5.11101
-5.03352
-4.95244
-4.86774
-4.77942
-4.68746
-4.59188
-4.49265
-4.38978
-4.28327
-4.17313
-4.05935
-3.94194
-3.82091
-3.69628
-3.56804
-3.43621
-3.3008
-3.16182
-3.0193
-2.87324
-2.72365
-2.57057
-2.41402
-2.254
-2.09055
-1.92369
-1.75346
-1.57989
-1.40301
-1.22285
-1.03947
-0.852894
-0.663183
-0.470383
-0.274546
-0.0757265
0.126016
0.330621
0.538026
0.748165
0.960971
1.17637
1.3943
1.61468
1.83744
2.0625
2.28978
2.51921
2.7507
2.98417
3.21955
3.45674
3.69566
3.93624
4.17838
4.422
4.66702
4.91335
5.16091
5.40962
5.65939
5.91013
6.16177
6.41422
6.66741
6.92125
7.17566
7.43057
7.68589
7.94156
8.19749
8.45361
8.70986
8.96615
9.22242
9.4786
9.73463
9.99043
10.2459
10.5011
10.7559
11.0102
11.2639
11.5171
11.7696
12.0215
12.2726
12.5229
12.7723
13.0209
13.2685
13.5152
13.7608
14.0054
14.2489
14.4912
14.7323
14.9723
15.211
15.4484
15.6845
15.9193
16.1527
16.3847
16.6153
16.8444
17.0721
17.2984
17.5231
17.7462
17.9679
18.188
18.4065
18.6234
18.8387
19.0524
19.2645
19.475
19.6837
19.8909
20.0963
20.3001
20.5022
20.7027
20.9014
21.0984
21.2937
21.4874
21.6793
21.8695
22.058
22.2448
22.4299
22.6133
22.7949
22.9749
23.1532
23.3297
23.5046
23.6777
23.8492
24.019
24.1871
24.3535
24.5183
24.6814
24.8428
25.0026
25.1607
25.3172
25.4721
25.6253
25.7769
25.9269
26.0753
26.2221
26.3673
26.5109
26.653
26.7935
26.9324
27.0698
27.2057
27.34
27.4728
27.6041
27.7339
27.8622
27.9891
28.1145
28.2384
28.3608
28.4818
28.6014
28.7196
28.8363
28.9517
29.0656
29.1782
29.2894
29.3993
29.5078
29.6149
29.7207
29.8252
29.9284
30.0302
30.1308
30.2301
30.3281
30.4249
30.5204
30.6146
30.7077
30.7994
30.89
30.9794
31.0675
31.1545
31.2403
31.3249
31.4084
31.4907
31.5718
31.6519
31.7308
31.8085
31.8852
31.9608
32.0352
32.1086
32.1809
32.2522
32.3223
32.3915
32.4596
32.5266
32.5926
32.6576
32.7216
32.7846
32.8465
32.9075
32.9675
33.0265
33.0846
33.1417
33.1978
33.253
33.3072
33.3605
33.4129
33.4643
33.5148
33.5644
33.6131
33.6609
33.7078
33.7539
33.799
33.8432
33.8866
33.9291
33.9708
34.0116
34.0515
34.0906
34.1289
34.1663
34.2029
34.2386
34.2735
34.3076
34.3409
34.3734
34.4051
34.4359
34.466
34.4952
34.5237
34.5514
34.5783
34.6044
34.6297
34.6543
34.678
34.701
34.7233
34.7447
34.7654
34.7854
34.8046
34.823
34.8407
34.8576
34.8738
34.8892
34.9039
34.9178
34.931
34.9434
34.9551
34.9661
34.9763
34.9858
34.9946
35.0026
35.0099
35.0165
35.0223
35.0274
35.0318
35.0354
35.0383
35.0405
35.042
35.0427
-5.93897
-5.93588
-5.92965
-5.92033
-5.90788
-5.89231
-5.87359
-5.85174
-5.82669
-5.79846
-5.767
-5.73228
-5.69427
-5.65293
-5.60824
-5.56015
-5.50863
-5.45365
-5.39516
-5.33314
-5.26755
-5.19836
-5.12555
-5.04908
-4.96893
-4.88509
-4.79754
-4.70627
-4.61128
-4.51256
-4.4101
-4.30392
-4.19402
-4.0804
-3.96308
-3.84208
-3.7174
-3.58907
-3.4571
-3.32151
-3.18233
-3.03956
-2.89325
-2.7434
-2.59004
-2.4332
-2.2729
-2.10917
-1.94203
-1.77153
-1.59769
-1.42055
-1.24015
-1.05652
-0.869722
-0.679791
-0.486781
-0.290743
-0.091733
0.110191
0.314969
0.522537
0.73283
0.945781
1.16132
1.37938
1.59988
1.82275
2.04791
2.27529
2.5048
2.73637
2.96991
3.20534
3.44259
3.68156
3.92217
4.16434
4.40799
4.65303
4.89937
5.14693
5.39563
5.64538
5.8961
6.14772
6.40013
6.65328
6.90707
7.16142
7.41627
7.67152
7.92711
8.18296
8.43899
8.69514
8.95133
9.2075
9.46356
9.71947
9.97515
10.2305
10.4856
10.7402
10.9943
11.2479
11.5009
11.7533
12.005
12.2559
12.506
12.7553
13.0037
13.2512
13.4976
13.743
13.9874
14.2307
14.4728
14.7137
14.9534
15.1919
15.4291
15.665
15.8995
16.1327
16.3645
16.5949
16.8238
17.0512
17.2772
17.5017
17.7246
17.946
18.1659
18.3841
18.6008
18.8159
19.0293
19.2412
19.4513
19.6599
19.8667
20.072
20.2755
20.4773
20.6775
20.876
21.0727
21.2678
21.4612
21.6528
21.8428
22.0311
22.2176
22.4024
22.5855
22.767
22.9467
23.1247
23.301
23.4756
23.6485
23.8197
23.9893
24.1571
24.3233
24.4878
24.6507
24.8119
24.9714
25.1293
25.2855
25.4401
25.5931
25.7445
25.8943
26.0424
26.189
26.3339
26.4773
26.6192
26.7594
26.8982
27.0353
27.171
27.3051
27.4377
27.5688
27.6984
27.8265
27.9531
28.0783
28.202
28.3242
28.445
28.5644
28.6824
28.7989
28.9141
29.0279
29.1402
29.2512
29.3609
29.4692
29.5762
29.6818
29.7861
29.8891
29.9908
30.0912
30.1903
30.2881
30.3847
30.4801
30.5741
30.667
30.7586
30.849
30.9382
31.0262
31.113
31.1987
31.2832
31.3665
31.4486
31.5296
31.6095
31.6883
31.7659
31.8424
31.9178
31.9922
32.0654
32.1376
32.2087
32.2788
32.3478
32.4157
32.4826
32.5485
32.6134
32.6773
32.7401
32.802
32.8629
32.9227
32.9816
33.0396
33.0966
33.1526
33.2077
33.2618
33.315
33.3673
33.4186
33.469
33.5185
33.5671
33.6149
33.6617
33.7076
33.7526
33.7968
33.8401
33.8825
33.9241
33.9648
34.0047
34.0437
34.0819
34.1192
34.1557
34.1914
34.2263
34.2603
34.2935
34.326
34.3576
34.3884
34.4184
34.4476
34.476
34.5036
34.5304
34.5565
34.5818
34.6063
34.63
34.653
34.6752
34.6966
34.7173
34.7372
34.7563
34.7747
34.7923
34.8092
34.8254
34.8408
34.8554
34.8693
34.8825
34.8949
34.9066
34.9175
34.9277
34.9372
34.946
34.954
34.9613
34.9678
34.9736
34.9787
34.9831
34.9867
34.9896
34.9918
34.9933
34.994
-5.95659
-5.95352
-5.94738
-5.93818
-5.92589
-5.91052
-5.89204
-5.87045
-5.84572
-5.81782
-5.78672
-5.7524
-5.71482
-5.67394
-5.62973
-5.58215
-5.53116
-5.47671
-5.41878
-5.35731
-5.29227
-5.22363
-5.15135
-5.0754
-4.99574
-4.91236
-4.82522
-4.73433
-4.63965
-4.54119
-4.43894
-4.3329
-4.22307
-4.10947
-3.9921
-3.87097
-3.74612
-3.61755
-3.4853
-3.34938
-3.20982
-3.06665
-2.9199
-2.7696
-2.61576
-2.45844
-2.29764
-2.13341
-1.96578
-1.79478
-1.62045
-1.44282
-1.26194
-1.07784
-0.890568
-0.700179
-0.506717
-0.310237
-0.110793
0.0915571
0.296752
0.504729
0.715423
0.928767
1.14469
1.36312
1.58399
1.80722
2.03274
2.26046
2.49031
2.72221
2.95607
3.19182
3.42937
3.66864
3.90955
4.152
4.39592
4.64123
4.88783
5.13564
5.38458
5.63457
5.88552
6.13736
6.38999
6.64334
6.89732
7.15187
7.40689
7.66232
7.91807
8.17408
8.43027
8.68656
8.94288
9.19918
9.45536
9.71138
9.96717
10.2227
10.4778
10.7325
10.9867
11.2404
11.4935
11.7459
11.9976
12.2486
12.4988
12.7481
12.9965
13.2439
13.4904
13.7359
13.9802
14.2235
14.4656
14.7065
14.9462
15.1847
15.4218
15.6577
15.8922
16.1253
16.3571
16.5874
16.8162
17.0436
17.2696
17.494
17.7168
17.9382
18.1579
18.3761
18.5927
18.8077
19.021
19.2328
19.4429
19.6513
19.8581
20.0632
20.2666
20.4684
20.6684
20.8668
21.0634
21.2584
21.4517
21.6432
21.833
22.0212
22.2076
22.3923
22.5753
22.7566
22.9362
23.1141
23.2902
23.4647
23.6375
23.8086
23.978
24.1457
24.3118
24.4762
24.6389
24.7999
24.9593
25.1171
25.2732
25.4277
25.5806
25.7318
25.8814
26.0295
26.1759
26.3207
26.464
26.6057
26.7458
26.8844
27.0215
27.157
27.291
27.4234
27.5544
27.6839
27.8119
27.9384
28.0634
28.187
28.3091
28.4298
28.5491
28.6669
28.7833
28.8984
29.012
29.1243
29.2352
29.3447
29.4529
29.5597
29.6653
29.7695
29.8723
29.9739
30.0742
30.1732
30.271
30.3674
30.4627
30.5566
30.6494
30.7409
30.8312
30.9203
31.0082
31.0949
31.1805
31.2649
31.3481
31.4301
31.511
31.5908
31.6695
31.747
31.8235
31.8988
31.9731
32.0462
32.1183
32.1893
32.2593
32.3282
32.3961
32.4629
32.5288
32.5936
32.6573
32.7201
32.7819
32.8427
32.9025
32.9614
33.0192
33.0761
33.1321
33.1871
33.2412
33.2943
33.3465
33.3978
33.4481
33.4976
33.5461
33.5938
33.6405
33.6864
33.7314
33.7755
33.8188
33.8612
33.9027
33.9433
33.9832
34.0221
34.0603
34.0975
34.134
34.1696
34.2045
34.2385
34.2716
34.304
34.3356
34.3663
34.3963
34.4255
34.4538
34.4814
34.5082
34.5343
34.5595
34.584
34.6077
34.6306
34.6528
34.6742
34.6948
34.7147
34.7338
34.7522
34.7698
34.7867
34.8028
34.8181
34.8328
34.8467
34.8598
34.8722
34.8839
34.8948
34.905
34.9145
34.9232
34.9312
34.9385
34.945
34.9508
34.9559
34.9603
34.9639
34.9668
34.969
34.9705
34.9712
-5.95952
-5.95655
-5.95061
-5.94171
-5.92981
-5.91493
-5.89703
-5.8761
-5.8521
-5.82502
-5.79481
-5.76144
-5.72486
-5.68504
-5.64193
-5.59549
-5.54566
-5.49239
-5.43565
-5.37537
-5.31152
-5.24404
-5.1729
-5.09805
-5.01945
-4.93707
-4.85088
-4.76085
-4.66698
-4.56923
-4.46761
-4.3621
-4.25272
-4.13947
-4.02236
-3.9014
-3.77662
-3.64805
-3.51572
-3.37964
-3.23987
-3.09642
-2.94935
-2.79868
-2.64444
-2.48669
-2.32545
-2.16076
-1.99266
-1.82119
-1.64638
-1.46828
-1.28693
-1.10237
-0.914655
-0.723824
-0.52993
-0.333028
-0.133172
0.0695782
0.275163
0.48352
0.694584
0.908287
1.12456
1.34333
1.56453
1.78808
2.0139
2.24192
2.47206
2.70423
2.93837
3.17438
3.41218
3.65168
3.89282
4.13549
4.37962
4.62513
4.87192
5.11991
5.36903
5.61918
5.87028
6.12226
6.37502
6.6285
6.8826
7.13725
7.39237
7.64789
7.90372
8.1598
8.41604
8.67238
8.92875
9.18508
9.44129
9.69733
9.95312
10.2086
10.4637
10.7184
10.9726
11.2263
11.4793
11.7317
11.9834
12.2343
12.4844
12.7336
12.9819
13.2293
13.4757
13.721
13.9653
14.2084
14.4504
14.6912
14.9308
15.1691
15.4062
15.6419
15.8762
16.1092
16.3408
16.5709
16.7996
17.0269
17.2526
17.4768
17.6995
17.9207
18.1403
18.3583
18.5747
18.7894
19.0026
19.2141
19.424
19.6323
19.8388
20.0437
20.2469
20.4485
20.6483
20.8465
21.0429
21.2376
21.4307
21.622
21.8116
21.9995
22.1857
22.3702
22.553
22.734
22.9134
23.0911
23.267
23.4413
23.6138
23.7847
23.9539
24.1214
24.2872
24.4514
24.6139
24.7747
24.9339
25.0914
25.2473
25.4016
25.5542
25.7052
25.8546
26.0024
26.1486
26.2933
26.4363
26.5778
26.7177
26.8561
26.9929
27.1282
27.262
27.3943
27.525
27.6543
27.7821
27.9084
28.0332
28.1566
28.2785
28.399
28.5181
28.6357
28.752
28.8668
28.9803
29.0924
29.2031
29.3124
29.4204
29.5271
29.6324
29.7364
29.8391
29.9405
30.0407
30.1395
30.2371
30.3334
30.4284
30.5223
30.6148
30.7062
30.7963
30.8853
30.973
31.0596
31.145
31.2292
31.3123
31.3942
31.475
31.5546
31.6331
31.7105
31.7868
31.862
31.9361
32.0092
32.0811
32.152
32.2218
32.2906
32.3584
32.4251
32.4908
32.5555
32.6191
32.6818
32.7435
32.8042
32.8639
32.9226
32.9803
33.0371
33.093
33.1479
33.2019
33.2549
33.307
33.3582
33.4084
33.4578
33.5063
33.5538
33.6005
33.6463
33.6912
33.7352
33.7784
33.8207
33.8621
33.9027
33.9424
33.9813
34.0194
34.0566
34.093
34.1286
34.1633
34.1972
34.2303
34.2627
34.2942
34.3249
34.3548
34.3839
34.4122
34.4397
34.4665
34.4925
34.5177
34.5421
34.5657
34.5886
34.6107
34.6321
34.6527
34.6725
34.6916
34.7099
34.7275
34.7444
34.7604
34.7758
34.7904
34.8042
34.8174
34.8298
34.8414
34.8523
34.8625
34.8719
34.8807
34.8886
34.8959
34.9024
34.9082
34.9133
34.9176
34.9213
34.9242
34.9263
34.9278
34.9285
-5.97762
-5.97469
-5.96885
-5.96008
-5.94836
-5.9337
-5.91607
-5.89545
-5.8718
-5.84511
-5.81534
-5.78245
-5.74639
-5.70713
-5.66462
-5.61881
-5.56965
-5.5171
-5.46109
-5.40157
-5.3385
-5.27182
-5.20147
-5.12742
-5.04962
-4.96802
-4.88258
-4.79328
-4.70009
-4.60298
-4.50193
-4.39693
-4.28798
-4.17508
-4.05823
-3.93746
-3.81278
-3.68421
-3.55179
-3.41556
-3.27554
-3.13178
-2.98433
-2.83322
-2.6785
-2.52022
-2.35841
-2.19313
-2.02442
-1.85232
-1.67687
-1.49813
-1.31614
-1.13094
-0.942583
-0.75112
-0.556604
-0.359087
-0.158626
0.0447206
0.250892
0.459825
0.671454
0.885713
1.10253
1.32184
1.54356
1.76762
1.99395
2.22247
2.45309
2.68574
2.92034
3.1568
3.39505
3.63499
3.87655
4.11964
4.36418
4.61007
4.85725
5.10562
5.3551
5.6056
5.85705
6.10935
6.36244
6.61623
6.87063
7.12557
7.38098
7.63676
7.89286
8.14918
8.40567
8.66224
8.91883
9.17537
9.43178
9.68801
9.94399
10.1996
10.4549
10.7098
10.9641
11.2179
11.471
11.7236
11.9753
12.2263
12.4765
12.7259
12.9743
13.2217
13.4681
13.7135
13.9578
14.201
14.443
14.6838
14.9234
15.1618
15.3988
15.6345
15.8688
16.1018
16.3333
16.5635
16.7921
17.0193
17.245
17.4692
17.6918
17.9129
18.1324
18.3503
18.5667
18.7814
18.9945
19.2059
19.4157
19.6238
19.8303
20.0351
20.2382
20.4396
20.6393
20.8374
21.0337
21.2283
21.4212
21.6124
21.8019
21.9897
22.1758
22.3601
22.5428
22.7237
22.9029
23.0804
23.2562
23.4304
23.6028
23.7735
23.9425
24.1099
24.2756
24.4396
24.6019
24.7626
24.9216
25.079
25.2348
25.3889
25.5414
25.6922
25.8415
25.9891
26.1352
26.2797
26.4226
26.5639
26.7037
26.8419
26.9786
27.1137
27.2474
27.3795
27.5101
27.6392
27.7668
27.893
28.0177
28.1409
28.2627
28.3831
28.502
28.6195
28.7356
28.8503
28.9636
29.0755
29.1861
29.2953
29.4032
29.5097
29.6149
29.7188
29.8214
29.9227
30.0226
30.1214
30.2188
30.315
30.4099
30.5036
30.5961
30.6873
30.7773
30.8661
30.9538
31.0402
31.1255
31.2096
31.2925
31.3743
31.455
31.5345
31.6129
31.6902
31.7664
31.8415
31.9155
31.9885
32.0603
32.1311
32.2008
32.2695
32.3372
32.4038
32.4694
32.534
32.5976
32.6601
32.7217
32.7823
32.8419
32.9006
32.9582
33.015
33.0707
33.1255
33.1794
33.2324
33.2844
33.3355
33.3857
33.435
33.4834
33.5309
33.5775
33.6232
33.668
33.712
33.7551
33.7973
33.8387
33.8792
33.9189
33.9577
33.9957
34.0329
34.0692
34.1047
34.1394
34.1733
34.2064
34.2386
34.2701
34.3007
34.3306
34.3597
34.3879
34.4154
34.4422
34.4681
34.4932
34.5176
34.5412
34.5641
34.5862
34.6075
34.6281
34.6479
34.6669
34.6852
34.7028
34.7196
34.7356
34.751
34.7655
34.7794
34.7925
34.8048
34.8165
34.8274
34.8375
34.847
34.8557
34.8636
34.8709
34.8774
34.8832
34.8883
34.8926
34.8962
34.8991
34.9013
34.9027
34.9035
-5.98551
-5.98266
-5.97699
-5.96846
-5.95707
-5.94281
-5.92566
-5.90558
-5.88256
-5.85656
-5.82755
-5.79547
-5.76029
-5.72197
-5.68044
-5.63566
-5.58758
-5.53613
-5.48126
-5.42291
-5.36102
-5.29553
-5.22639
-5.15353
-5.07691
-4.99647
-4.91218
-4.82398
-4.73183
-4.63572
-4.5356
-4.43146
-4.32329
-4.21108
-4.09483
-3.97455
-3.85026
-3.72198
-3.58975
-3.45359
-3.31355
-3.16968
-3.02202
-2.87062
-2.71554
-2.55683
-2.39454
-2.22873
-2.05946
-1.88676
-1.7107
-1.53133
-1.34869
-1.16285
-0.973852
-0.781748
-0.586597
-0.388452
-0.187372
0.0165829
0.223352
0.432871
0.645076
0.859898
1.07727
1.29711
1.51937
1.74395
1.97078
2.19979
2.43089
2.66401
2.89907
3.13598
3.37465
3.61502
3.85699
4.10048
4.3454
4.59167
4.83921
5.08793
5.33775
5.58858
5.84034
6.09296
6.34634
6.6004
6.85507
7.11027
7.36592
7.62194
7.87826
8.1348
8.39149
8.64825
8.90501
9.16172
9.41829
9.67466
9.93077
10.1865
10.4419
10.6969
10.9513
11.2052
11.4584
11.711
11.9628
12.2139
12.4641
12.7134
12.9618
13.2093
13.4557
13.7011
13.9454
14.1885
14.4305
14.6713
14.9108
15.1491
15.3861
15.6217
15.8559
16.0888
16.3203
16.5503
16.7789
17.006
17.2315
17.4556
17.6781
17.899
18.1184
18.3362
18.5524
18.7669
18.9799
19.1911
19.4008
19.6087
19.815
20.0197
20.2226
20.4238
20.6234
20.8212
21.0174
21.2118
21.4045
21.5955
21.7848
21.9724
22.1583
22.3424
22.5249
22.7056
22.8846
23.0619
23.2375
23.4114
23.5836
23.7541
23.923
24.0901
24.2556
24.4194
24.5815
24.742
24.9008
25.058
25.2135
25.3674
25.5197
25.6703
25.8194
25.9668
26.1127
26.2569
26.3996
26.5408
26.6803
26.8183
26.9548
27.0898
27.2232
27.3551
27.4855
27.6144
27.7418
27.8678
27.9923
28.1153
28.2369
28.3571
28.4758
28.5931
28.709
28.8235
28.9367
29.0484
29.1588
29.2678
29.3755
29.4818
29.5869
29.6906
29.793
29.8941
29.9939
30.0924
30.1897
30.2857
30.3805
30.474
30.5663
30.6573
30.7472
30.8359
30.9233
31.0096
31.0947
31.1787
31.2615
31.3431
31.4237
31.503
31.5813
31.6585
31.7345
31.8095
31.8833
31.9561
32.0278
32.0985
32.1681
32.2367
32.3042
32.3707
32.4361
32.5006
32.5641
32.6265
32.688
32.7484
32.8079
32.8665
32.924
32.9806
33.0363
33.091
33.1448
33.1976
33.2496
33.3006
33.3507
33.3998
33.4481
33.4955
33.542
33.5877
33.6324
33.6763
33.7193
33.7614
33.8027
33.8432
33.8828
33.9215
33.9595
33.9966
34.0328
34.0683
34.1029
34.1367
34.1697
34.2019
34.2333
34.2639
34.2937
34.3227
34.3509
34.3783
34.405
34.4309
34.456
34.4803
34.5039
34.5267
34.5487
34.57
34.5905
34.6103
34.6293
34.6476
34.6651
34.6819
34.6979
34.7132
34.7277
34.7415
34.7546
34.7669
34.7785
34.7894
34.7996
34.809
34.8177
34.8256
34.8328
34.8393
34.8451
34.8502
34.8545
34.8581
34.861
34.8632
34.8646
34.8653
-6.00283
-6.00003
-5.99444
-5.98605
-5.97485
-5.96082
-5.94394
-5.92419
-5.90154
-5.87595
-5.84739
-5.81582
-5.7812
-5.74347
-5.7026
-5.65851
-5.61117
-5.56051
-5.50646
-5.44898
-5.38799
-5.32344
-5.25526
-5.1834
-5.10778
-5.02836
-4.94509
-4.8579
-4.76675
-4.67161
-4.57242
-4.46918
-4.36184
-4.25039
-4.13483
-4.01515
-3.89137
-3.7635
-3.63157
-3.49561
-3.35566
-3.21177
-3.06398
-2.91236
-2.75696
-2.59784
-2.43507
-2.26871
-2.09882
-1.92546
-1.7487
-1.5686
-1.38521
-1.1986
-1.00882
-0.815932
-0.619997
-0.421072
-0.219217
-0.0144953
0.193032
0.403299
0.61624
0.831788
1.04987
1.27042
1.49336
1.71862
1.94612
2.17578
2.40753
2.64128
2.87695
3.11447
3.35374
3.59469
3.83722
4.08127
4.32673
4.57354
4.82159
5.07082
5.32113
5.57244
5.82467
6.07774
6.33156
6.58605
6.84114
7.09675
7.35278
7.60918
7.86586
8.12275
8.37978
8.63687
8.89395
9.15096
9.40781
9.66446
9.92084
10.1769
10.4325
10.6877
10.9423
11.1964
11.4498
11.7026
11.9546
12.2058
12.4562
12.7056
12.9542
13.2017
13.4483
13.6938
13.9381
14.1814
14.4234
14.6643
14.9038
15.1422
15.3791
15.6148
15.8491
16.082
16.3134
16.5435
16.772
16.9991
17.2246
17.4486
17.6711
17.892
18.1113
18.3291
18.5452
18.7597
18.9725
19.1837
19.3933
19.6011
19.8073
20.0119
20.2147
20.4158
20.6153
20.813
21.009
21.2033
21.3959
21.5868
21.776
21.9634
22.1491
22.3332
22.5155
22.696
22.8749
23.0521
23.2275
23.4013
23.5733
23.7437
23.9124
24.0794
24.2447
24.4083
24.5703
24.7306
24.8892
25.0462
25.2016
25.3553
25.5074
25.6579
25.8068
25.9541
26.0998
26.2439
26.3864
26.5274
26.6668
26.8046
26.9409
27.0757
27.209
27.3407
27.4709
27.5997
27.7269
27.8527
27.9771
28.0999
28.2214
28.3414
28.4599
28.5771
28.6928
28.8072
28.9202
29.0317
29.142
29.2509
29.3584
29.4646
29.5694
29.673
29.7752
29.8762
29.9759
30.0742
30.1714
30.2672
30.3619
30.4552
30.5474
30.6383
30.7281
30.8166
30.9039
30.9901
31.0751
31.1589
31.2415
31.3231
31.4034
31.4827
31.5608
31.6379
31.7138
31.7886
31.8624
31.935
32.0066
32.0772
32.1467
32.2151
32.2825
32.3489
32.4143
32.4786
32.542
32.6043
32.6657
32.7261
32.7855
32.8439
32.9014
32.9579
33.0134
33.0681
33.1217
33.1745
33.2263
33.2772
33.3273
33.3764
33.4246
33.4719
33.5183
33.5638
33.6085
33.6523
33.6953
33.7373
33.7786
33.8189
33.8585
33.8971
33.935
33.972
34.0082
34.0436
34.0782
34.1119
34.1448
34.177
34.2083
34.2389
34.2686
34.2976
34.3257
34.3531
34.3797
34.4056
34.4306
34.4549
34.4784
34.5012
34.5232
34.5444
34.5649
34.5847
34.6036
34.6219
34.6394
34.6561
34.6721
34.6874
34.7019
34.7157
34.7287
34.741
34.7526
34.7635
34.7736
34.783
34.7917
34.7996
34.8068
34.8133
34.8191
34.8241
34.8284
34.832
34.8349
34.8371
34.8385
34.8393
-6.01293
-6.01019
-6.00475
-5.99656
-5.98563
-5.97194
-5.95547
-5.93618
-5.91406
-5.88906
-5.86116
-5.8303
-5.79645
-5.75954
-5.71954
-5.67639
-5.63002
-5.58038
-5.5274
-5.47102
-5.41118
-5.3478
-5.28083
-5.21019
-5.13581
-5.05765
-4.97563
-4.8897
-4.7998
-4.70588
-4.6079
-4.5058
-4.39957
-4.28917
-4.17459
-4.05581
-3.93284
-3.80568
-3.67435
-3.53887
-3.39929
-3.25564
-3.10798
-2.95636
-2.80085
-2.64151
-2.47842
-2.31164
-2.14125
-1.96733
-1.78993
-1.60915
-1.42504
-1.23767
-1.04711
-0.853435
-0.656698