/*--------------------------------*- C++ -*----------------------------------*\
| =========                 |                                                 |
| \\      /  F ield         | OpenFOAM: The Open Source CFD Toolbox           |
|  \\    /   O peration     | Version:  2212                                  |
|   \\  /    A nd           | Website:  www.openfoam.com                      |
|    \\/     M anipulation  |                                                 |
\*---------------------------------------------------------------------------*/
FoamFile
{
    version     2.0;
    format      ascii;
    arch        "LSB;label=32;scalar=64";
    class       volScalarField;
    location    "790";
    object      p_rgh;
}
// * * * * * * * * * * * * * * * * * * * * * * * * * * * * * * * * * * * * * //

dimensions      [1 -1 -2 0 0 0 0];

internalField   nonuniform List<scalar> 
204800
(
51.8118
51.8084
51.804
51.7969
51.7876
51.7756
51.7608
51.7432
51.7227
51.6996
51.6737
51.6454
51.6145
51.5812
51.5456
51.5077
51.4675
51.425
51.3803
51.3334
51.2843
51.233
51.1796
51.1241
51.0665
51.0069
50.9453
50.8816
50.816
50.7484
50.6789
50.6076
50.5344
50.4593
50.3825
50.304
50.2237
50.1417
50.0581
49.9728
49.8859
49.7976
49.7076
49.6163
49.5235
49.4292
49.3337
49.2368
49.1387
49.0393
48.9387
48.837
48.7341
48.6302
48.5252
48.4193
48.3123
48.2045
48.0958
47.9862
47.8758
47.7647
47.6529
47.5404
47.4272
47.3135
47.1992
47.0843
46.969
46.8533
46.7372
46.6207
46.5039
46.3869
46.2696
46.1521
46.0344
45.9166
45.7987
45.6808
45.5629
45.445
45.3272
45.2095
45.0919
44.9744
44.8572
44.7402
44.6235
44.5071
44.391
44.2753
44.16
44.0451
43.9307
43.8167
43.7033
43.5904
43.4781
43.3664
43.2554
43.1449
43.0352
42.9261
42.8178
42.7103
42.6035
42.4975
42.3923
42.288
42.1845
42.0819
41.9802
41.8794
41.7795
41.6806
41.5827
41.4857
41.3897
41.2948
41.2008
41.1079
41.0161
40.9253
40.8356
40.747
40.6595
40.573
40.4877
40.4035
40.3205
40.2385
40.1578
40.0781
39.9996
39.9223
39.8461
39.7711
39.6973
39.6246
39.5531
39.4828
39.4136
39.3457
39.2789
39.2132
39.1488
39.0855
39.0234
38.9625
38.9027
38.8441
38.7866
38.7303
38.6752
38.6212
38.5683
38.5166
38.466
38.4165
38.3682
38.3209
38.2748
38.2297
38.1858
38.1429
38.1011
38.0603
38.0206
37.982
37.9443
37.9078
37.8722
37.8376
37.804
37.7715
37.7398
37.7092
37.6795
37.6507
37.6229
37.596
37.57
37.5449
37.5207
37.4974
37.4749
37.4533
37.4325
37.4125
37.3933
37.375
37.3574
37.3406
37.3246
37.3093
37.2947
37.2809
37.2678
37.2554
37.2437
37.2326
37.2222
37.2125
37.2033
37.1948
37.187
37.1797
37.173
37.1668
37.1612
37.1562
37.1517
37.1477
37.1443
37.1413
37.1388
37.1368
37.1352
37.1341
37.1334
37.1332
37.1333
37.1339
37.1348
37.1361
37.1378
37.1398
37.1422
37.1449
37.1479
37.1512
37.1549
37.1588
37.1629
37.1674
37.1721
37.177
37.1822
37.1876
37.1931
37.1989
37.2049
37.2111
37.2174
37.2239
37.2305
37.2373
37.2442
37.2513
37.2584
37.2657
37.273
37.2805
37.288
37.2956
37.3032
37.3109
37.3186
37.3264
37.3342
37.3421
37.3499
37.3578
37.3656
37.3734
37.3813
37.3891
37.3968
37.4046
37.4123
37.4199
37.4275
37.435
37.4425
37.4499
37.4572
37.4644
37.4715
37.4786
37.4855
37.4923
37.499
37.5056
37.5121
37.5185
37.5247
37.5308
37.5367
37.5425
37.5482
37.5537
37.559
37.5642
37.5692
37.5741
37.5788
37.5833
37.5876
37.5918
37.5958
37.5996
37.6032
37.6066
37.6098
37.6129
37.6157
37.6184
37.6209
37.6231
37.6252
37.627
37.6287
37.6301
37.6314
37.6324
37.6332
37.6339
37.6343
37.6345
51.7271
51.7236
51.7173
51.7081
51.6962
51.6818
51.6649
51.6456
51.6239
51.5999
51.5735
51.5447
51.5136
51.4802
51.4445
51.4066
51.3664
51.3239
51.2792
51.2324
51.1833
51.1322
51.0789
51.0234
50.966
50.9064
50.8449
50.7813
50.7158
50.6484
50.579
50.5078
50.4347
50.3598
50.2831
50.2047
50.1245
50.0427
49.9592
49.8741
49.7874
49.6992
49.6094
49.5182
49.4256
49.3315
49.2361
49.1394
49.0415
48.9423
48.8419
48.7403
48.6376
48.5339
48.4291
48.3234
48.2166
48.109
48.0004
47.8911
47.7809
47.67
47.5584
47.4461
47.3331
47.2196
47.1055
46.9909
46.8758
46.7603
46.6443
46.5281
46.4115
46.2947
46.1776
46.0603
45.9428
45.8253
45.7076
45.5899
45.4722
45.3545
45.2369
45.1194
45.002
44.8848
44.7678
44.651
44.5345
44.4183
44.3025
44.187
44.0719
43.9572
43.843
43.7293
43.6161
43.5034
43.3913
43.2798
43.1689
43.0587
42.9492
42.8403
42.7322
42.6249
42.5183
42.4125
42.3075
42.2034
42.1001
41.9977
41.8961
41.7955
41.6959
41.5971
41.4994
41.4026
41.3068
41.212
41.1183
41.0256
40.9339
40.8433
40.7538
40.6653
40.578
40.4917
40.4066
40.3225
40.2396
40.1578
40.0772
39.9977
39.9194
39.8422
39.7662
39.6913
39.6176
39.5451
39.4737
39.4036
39.3345
39.2667
39.2
39.1345
39.0702
39.0071
38.9451
38.8843
38.8246
38.7661
38.7088
38.6526
38.5976
38.5437
38.4909
38.4393
38.3888
38.3394
38.2912
38.244
38.198
38.153
38.1091
38.0663
38.0246
37.984
37.9443
37.9058
37.8682
37.8317
37.7962
37.7617
37.7282
37.6957
37.6642
37.6336
37.6039
37.5753
37.5475
37.5207
37.4947
37.4697
37.4455
37.4222
37.3998
37.3782
37.3575
37.3376
37.3184
37.3001
37.2826
37.2658
37.2498
37.2346
37.2201
37.2063
37.1932
37.1808
37.1691
37.1581
37.1477
37.138
37.1289
37.1204
37.1126
37.1053
37.0986
37.0925
37.0869
37.0819
37.0774
37.0735
37.07
37.0671
37.0646
37.0626
37.061
37.0599
37.0592
37.059
37.0592
37.0597
37.0607
37.062
37.0637
37.0657
37.0681
37.0708
37.0738
37.0771
37.0807
37.0846
37.0888
37.0932
37.0979
37.1029
37.108
37.1134
37.119
37.1248
37.1308
37.1369
37.1432
37.1497
37.1564
37.1631
37.17
37.1771
37.1842
37.1914
37.1988
37.2062
37.2137
37.2213
37.2289
37.2366
37.2443
37.2521
37.2599
37.2677
37.2756
37.2834
37.2912
37.2991
37.3069
37.3147
37.3224
37.3302
37.3378
37.3455
37.3531
37.3606
37.368
37.3754
37.3827
37.3899
37.397
37.404
37.411
37.4178
37.4245
37.4311
37.4375
37.4439
37.4501
37.4562
37.4621
37.4679
37.4735
37.479
37.4844
37.4895
37.4945
37.4994
37.5041
37.5086
37.5129
37.5171
37.5211
37.5249
37.5285
37.5319
37.5351
37.5382
37.541
37.5437
37.5461
37.5484
37.5504
37.5523
37.5539
37.5554
37.5566
37.5576
37.5585
37.5591
37.5595
37.5597
51.7088
51.7054
51.6991
51.6899
51.6781
51.6637
51.6468
51.6276
51.6059
51.5818
51.5553
51.5265
51.4954
51.462
51.4262
51.3883
51.348
51.3055
51.2608
51.2139
51.1649
51.1137
51.0604
51.0049
50.9474
50.8879
50.8263
50.7627
50.6972
50.6298
50.5604
50.4892
50.4161
50.3412
50.2645
50.1861
50.1059
50.0241
49.9406
49.8555
49.7688
49.6805
49.5908
49.4996
49.4069
49.3129
49.2175
49.1208
49.0228
48.9236
48.8232
48.7217
48.619
48.5153
48.4105
48.3047
48.198
48.0904
47.9818
47.8725
47.7623
47.6514
47.5398
47.4275
47.3145
47.201
47.0869
46.9723
46.8572
46.7417
46.6258
46.5096
46.393
46.2761
46.1591
46.0418
45.9244
45.8068
45.6892
45.5715
45.4538
45.3361
45.2185
45.101
44.9837
44.8665
44.7495
44.6327
44.5162
44.4
44.2842
44.1687
44.0536
43.939
43.8248
43.711
43.5979
43.4852
43.3731
43.2616
43.1508
43.0406
42.9311
42.8223
42.7142
42.6068
42.5003
42.3945
42.2895
42.1854
42.0821
41.9797
41.8782
41.7777
41.678
41.5793
41.4816
41.3848
41.2891
41.1943
41.1006
41.0079
40.9163
40.8257
40.7362
40.6477
40.5604
40.4742
40.389
40.305
40.2221
40.1404
40.0598
39.9803
39.902
39.8249
39.7489
39.674
39.6004
39.5279
39.4565
39.3864
39.3174
39.2496
39.1829
39.1175
39.0532
38.99
38.9281
38.8673
38.8077
38.7492
38.6919
38.6357
38.5807
38.5268
38.4741
38.4225
38.372
38.3227
38.2745
38.2273
38.1813
38.1364
38.0925
38.0498
38.0081
37.9674
37.9278
37.8893
37.8518
37.8153
37.7798
37.7453
37.7119
37.6794
37.6478
37.6173
37.5877
37.559
37.5313
37.5044
37.4785
37.4535
37.4294
37.4061
37.3837
37.3621
37.3414
37.3215
37.3024
37.2841
37.2666
37.2499
37.2339
37.2187
37.2042
37.1904
37.1773
37.165
37.1533
37.1423
37.1319
37.1222
37.1131
37.1047
37.0968
37.0896
37.0829
37.0768
37.0713
37.0663
37.0618
37.0579
37.0544
37.0515
37.049
37.047
37.0455
37.0444
37.0437
37.0435
37.0436
37.0442
37.0452
37.0465
37.0482
37.0502
37.0526
37.0553
37.0584
37.0617
37.0653
37.0692
37.0734
37.0779
37.0826
37.0875
37.0927
37.0981
37.1037
37.1095
37.1154
37.1216
37.1279
37.1344
37.1411
37.1479
37.1548
37.1618
37.169
37.1762
37.1836
37.191
37.1985
37.2061
37.2137
37.2214
37.2291
37.2369
37.2447
37.2526
37.2604
37.2682
37.2761
37.2839
37.2917
37.2995
37.3073
37.315
37.3227
37.3303
37.3379
37.3454
37.3529
37.3603
37.3676
37.3748
37.3819
37.3889
37.3959
37.4027
37.4094
37.416
37.4224
37.4288
37.435
37.4411
37.447
37.4528
37.4584
37.4639
37.4693
37.4745
37.4795
37.4843
37.489
37.4935
37.4979
37.502
37.506
37.5098
37.5134
37.5168
37.5201
37.5231
37.5259
37.5286
37.5311
37.5333
37.5354
37.5372
37.5389
37.5403
37.5416
37.5426
37.5434
37.544
37.5445
37.5447
51.6328
51.6292
51.6222
51.6122
51.5992
51.5838
51.5658
51.5457
51.5232
51.4985
51.4715
51.4423
51.4109
51.3773
51.3414
51.3033
51.263
51.2204
51.1757
51.1288
51.0798
51.0286
50.9753
50.9199
50.8624
50.8029
50.7414
50.6779
50.6124
50.545
50.4757
50.4045
50.3315
50.2567
50.1801
50.1017
50.0217
49.9399
49.8565
49.7715
49.6849
49.5967
49.5071
49.416
49.3234
49.2295
49.1342
49.0376
48.9398
48.8407
48.7404
48.639
48.5364
48.4328
48.3282
48.2225
48.1159
48.0084
47.9
47.7908
47.6808
47.57
47.4585
47.3463
47.2335
47.1201
47.0062
46.8917
46.7768
46.6614
46.5457
46.4295
46.3131
46.1964
46.0795
45.9624
45.8451
45.7277
45.6102
45.4926
45.3751
45.2576
45.1401
45.0228
44.9056
44.7885
44.6717
44.5551
44.4387
44.3227
44.207
44.0917
43.9768
43.8622
43.7482
43.6346
43.5216
43.4091
43.2972
43.1859
43.0752
42.9651
42.8557
42.7471
42.6391
42.5319
42.4255
42.3199
42.2151
42.1111
42.008
41.9057
41.8044
41.704
41.6045
41.5059
41.4083
41.3117
41.2161
41.1215
41.0279
40.9353
40.8438
40.7534
40.664
40.5757
40.4885
40.4024
40.3174
40.2335
40.1508
40.0692
39.9887
39.9093
39.8312
39.7541
39.6782
39.6035
39.53
39.4576
39.3864
39.3163
39.2475
39.1798
39.1132
39.0479
38.9837
38.9207
38.8588
38.7982
38.7386
38.6803
38.6231
38.567
38.5121
38.4583
38.4057
38.3542
38.3038
38.2546
38.2064
38.1594
38.1134
38.0686
38.0248
37.9821
37.9405
37.9
37.8605
37.822
37.7846
37.7481
37.7127
37.6783
37.6449
37.6125
37.5811
37.5506
37.521
37.4924
37.4648
37.438
37.4121
37.3872
37.3631
37.3399
37.3176
37.296
37.2754
37.2555
37.2365
37.2182
37.2008
37.1841
37.1682
37.153
37.1385
37.1248
37.1118
37.0995
37.0878
37.0768
37.0665
37.0569
37.0478
37.0394
37.0316
37.0244
37.0177
37.0117
37.0062
37.0012
36.9967
36.9928
36.9894
36.9865
36.984
36.9821
36.9806
36.9795
36.9789
36.9786
36.9788
36.9794
36.9804
36.9817
36.9835
36.9855
36.9879
36.9906
36.9937
36.997
37.0007
37.0046
37.0088
37.0133
37.018
37.0229
37.0281
37.0335
37.0391
37.0449
37.0509
37.0571
37.0634
37.0699
37.0766
37.0834
37.0903
37.0973
37.1045
37.1117
37.1191
37.1265
37.134
37.1416
37.1492
37.1569
37.1647
37.1725
37.1803
37.1881
37.1959
37.2038
37.2116
37.2194
37.2273
37.2351
37.2428
37.2506
37.2582
37.2659
37.2735
37.281
37.2884
37.2958
37.3031
37.3103
37.3174
37.3245
37.3314
37.3382
37.3449
37.3515
37.358
37.3643
37.3705
37.3766
37.3825
37.3883
37.3939
37.3994
37.4048
37.41
37.415
37.4198
37.4245
37.429
37.4333
37.4375
37.4415
37.4453
37.4489
37.4523
37.4555
37.4586
37.4614
37.4641
37.4665
37.4688
37.4708
37.4727
37.4743
37.4758
37.477
37.4781
37.4789
37.4795
37.4799
37.4801
51.6027
51.5993
51.5924
51.5825
51.5697
51.5544
51.5365
51.5164
51.4939
51.4692
51.4422
51.413
51.3815
51.3478
51.3119
51.2737
51.2333
51.1908
51.146
51.099
51.0499
50.9987
50.9453
50.8899
50.8324
50.7729
50.7113
50.6478
50.5823
50.5148
50.4455
50.3743
50.3013
50.2264
50.1498
50.0714
49.9914
49.9096
49.8262
49.7411
49.6545
49.5664
49.4767
49.3856
49.293
49.1991
49.1038
49.0072
48.9093
48.8102
48.7099
48.6085
48.5059
48.4023
48.2977
48.192
48.0854
47.9779
47.8695
47.7602
47.6502
47.5394
47.4279
47.3158
47.2029
47.0895
46.9756
46.8611
46.7462
46.6308
46.5151
46.399
46.2825
46.1659
46.0489
45.9318
45.8145
45.6971
45.5796
45.4621
45.3446
45.2271
45.1096
44.9923
44.8751
44.7581
44.6412
44.5246
44.4083
44.2923
44.1766
44.0613
43.9464
43.8319
43.7179
43.6043
43.4913
43.3788
43.2669
43.1556
43.0449
42.9349
42.8256
42.7169
42.609
42.5018
42.3954
42.2898
42.1851
42.0811
41.978
41.8758
41.7745
41.6741
41.5746
41.4761
41.3785
41.2819
41.1863
41.0918
40.9982
40.9057
40.8142
40.7238
40.6345
40.5462
40.4591
40.373
40.288
40.2042
40.1215
40.0399
39.9595
39.8802
39.802
39.725
39.6492
39.5745
39.501
39.4287
39.3575
39.2875
39.2187
39.151
39.0845
39.0192
38.9551
38.8921
38.8303
38.7696
38.7102
38.6518
38.5947
38.5387
38.4838
38.4301
38.3775
38.326
38.2757
38.2265
38.1784
38.1314
38.0855
38.0407
37.997
37.9543
37.9128
37.8722
37.8328
37.7944
37.757
37.7206
37.6852
37.6509
37.6175
37.5851
37.5537
37.5233
37.4938
37.4652
37.4376
37.4109
37.385
37.3601
37.3361
37.3129
37.2906
37.2691
37.2485
37.2287
37.2097
37.1915
37.1741
37.1574
37.1415
37.1264
37.112
37.0983
37.0853
37.073
37.0614
37.0505
37.0402
37.0305
37.0215
37.0131
37.0054
36.9982
36.9916
36.9855
36.9801
36.9751
36.9707
36.9668
36.9634
36.9605
36.9581
36.9562
36.9547
36.9537
36.953
36.9529
36.9531
36.9537
36.9547
36.9561
36.9578
36.9599
36.9623
36.9651
36.9681
36.9715
36.9752
36.9791
36.9833
36.9878
36.9925
36.9975
37.0027
37.0081
37.0137
37.0196
37.0256
37.0318
37.0381
37.0446
37.0513
37.0581
37.0651
37.0721
37.0793
37.0865
37.0939
37.1014
37.1089
37.1165
37.1241
37.1319
37.1396
37.1474
37.1552
37.1631
37.1709
37.1788
37.1866
37.1945
37.2023
37.2101
37.2179
37.2256
37.2333
37.2409
37.2485
37.2561
37.2635
37.2709
37.2782
37.2854
37.2926
37.2996
37.3065
37.3134
37.3201
37.3267
37.3331
37.3395
37.3457
37.3518
37.3577
37.3635
37.3692
37.3747
37.38
37.3852
37.3902
37.395
37.3997
37.4042
37.4086
37.4127
37.4167
37.4205
37.4241
37.4276
37.4308
37.4338
37.4367
37.4393
37.4418
37.4441
37.4461
37.448
37.4496
37.4511
37.4523
37.4533
37.4542
37.4548
37.4552
37.4554
51.5334
51.5299
51.5228
51.5126
51.4994
51.4836
51.4653
51.4447
51.4218
51.3967
51.3694
51.3399
51.3081
51.2742
51.2381
51.1998
51.1593
51.1166
51.0718
51.0248
50.9756
50.9243
50.871
50.8155
50.758
50.6985
50.6369
50.5734
50.5079
50.4405
50.3712
50.3
50.227
50.1522
50.0756
49.9972
49.9172
49.8355
49.7521
49.6671
49.5805
49.4924
49.4028
49.3117
49.2192
49.1253
49.0301
48.9335
48.8357
48.7367
48.6365
48.5351
48.4326
48.329
48.2245
48.1189
48.0123
47.9049
47.7966
47.6874
47.5774
47.4667
47.3553
47.2432
47.1305
47.0172
46.9033
46.7889
46.6741
46.5588
46.4431
46.3271
46.2108
46.0942
45.9773
45.8603
45.7431
45.6258
45.5084
45.391
45.2735
45.1561
45.0388
44.9215
44.8044
44.6875
44.5708
44.4543
44.3381
44.2221
44.1066
43.9913
43.8765
43.7621
43.6482
43.5348
43.4219
43.3095
43.1977
43.0865
42.9759
42.866
42.7568
42.6482
42.5404
42.4334
42.3271
42.2216
42.1169
42.0131
41.9101
41.808
41.7068
41.6065
41.5071
41.4087
41.3112
41.2148
41.1193
41.0248
40.9314
40.839
40.7476
40.6573
40.5681
40.4799
40.3929
40.3069
40.2221
40.1383
40.0557
39.9742
39.8939
39.8147
39.7367
39.6598
39.5841
39.5095
39.4361
39.3638
39.2928
39.2229
39.1542
39.0866
39.0202
38.955
38.891
38.8281
38.7664
38.7058
38.6464
38.5882
38.5311
38.4752
38.4204
38.3668
38.3143
38.263
38.2127
38.1636
38.1156
38.0687
38.0229
37.9782
37.9345
37.892
37.8505
37.81
37.7707
37.7323
37.695
37.6587
37.6234
37.5891
37.5559
37.5236
37.4922
37.4618
37.4324
37.4039
37.3764
37.3497
37.324
37.2991
37.2752
37.2521
37.2298
37.2084
37.1878
37.1681
37.1491
37.131
37.1136
37.097
37.0812
37.0661
37.0518
37.0381
37.0252
37.013
37.0014
36.9905
36.9803
36.9707
36.9617
36.9534
36.9457
36.9385
36.932
36.926
36.9205
36.9156
36.9113
36.9074
36.9041
36.9012
36.8989
36.8969
36.8955
36.8945
36.8939
36.8938
36.894
36.8947
36.8957
36.8971
36.8989
36.901
36.9034
36.9062
36.9093
36.9127
36.9164
36.9204
36.9246
36.9291
36.9339
36.9389
36.9441
36.9495
36.9552
36.961
36.9671
36.9733
36.9796
36.9862
36.9929
36.9997
37.0066
37.0137
37.0209
37.0282
37.0356
37.043
37.0506
37.0582
37.0659
37.0736
37.0813
37.0891
37.097
37.1048
37.1127
37.1205
37.1284
37.1363
37.1441
37.1519
37.1597
37.1675
37.1752
37.1828
37.1904
37.1979
37.2054
37.2128
37.2201
37.2273
37.2345
37.2415
37.2485
37.2553
37.262
37.2686
37.2751
37.2814
37.2876
37.2937
37.2997
37.3055
37.3111
37.3166
37.322
37.3272
37.3322
37.337
37.3417
37.3462
37.3506
37.3547
37.3587
37.3625
37.3661
37.3696
37.3728
37.3758
37.3787
37.3814
37.3838
37.3861
37.3881
37.39
37.3916
37.3931
37.3943
37.3954
37.3962
37.3968
37.3972
37.3974
51.4958
51.4924
51.4854
51.4754
51.4624
51.4468
51.4286
51.4081
51.3852
51.3601
51.3328
51.3032
51.2715
51.2375
51.2013
51.1629
51.1223
51.0796
51.0346
50.9875
50.9383
50.887
50.8335
50.778
50.7205
50.6609
50.5993
50.5357
50.4701
50.4027
50.3333
50.2621
50.1891
50.1142
50.0376
49.9592
49.8791
49.7973
49.7139
49.6289
49.5423
49.4541
49.3645
49.2734
49.1808
49.0869
48.9917
48.8951
48.7972
48.6982
48.5979
48.4965
48.394
48.2904
48.1858
48.0802
47.9736
47.8662
47.7578
47.6486
47.5387
47.4279
47.3165
47.2044
47.0916
46.9783
46.8644
46.75
46.6351
46.5198
46.4042
46.2881
46.1718
46.0552
45.9383
45.8213
45.7041
45.5868
45.4694
45.3519
45.2345
45.1171
44.9997
44.8825
44.7654
44.6484
44.5317
44.4152
44.299
44.1831
44.0675
43.9523
43.8375
43.7231
43.6092
43.4958
43.3829
43.2705
43.1587
43.0475
42.937
42.8271
42.7179
42.6094
42.5016
42.3945
42.2883
42.1828
42.0781
41.9743
41.8714
41.7693
41.6681
41.5679
41.4685
41.3701
41.2727
41.1763
41.0808
40.9864
40.893
40.8006
40.7093
40.619
40.5298
40.4417
40.3547
40.2688
40.184
40.1003
40.0178
39.9363
39.856
39.7769
39.6989
39.6221
39.5464
39.4719
39.3985
39.3263
39.2553
39.1855
39.1168
39.0493
38.983
38.9178
38.8538
38.791
38.7293
38.6688
38.6095
38.5513
38.4943
38.4385
38.3837
38.3302
38.2777
38.2264
38.1762
38.1272
38.0792
38.0324
37.9866
37.942
37.8984
37.8559
37.8145
37.7741
37.7348
37.6965
37.6592
37.623
37.5878
37.5536
37.5203
37.4881
37.4568
37.4265
37.3971
37.3687
37.3412
37.3146
37.2889
37.2641
37.2402
37.2172
37.195
37.1736
37.1531
37.1334
37.1145
37.0964
37.0791
37.0626
37.0468
37.0318
37.0175
37.0039
36.991
36.9788
36.9673
36.9565
36.9463
36.9368
36.9278
36.9196
36.9119
36.9048
36.8983
36.8923
36.8869
36.8821
36.8778
36.8739
36.8706
36.8678
36.8655
36.8636
36.8622
36.8613
36.8607
36.8606
36.8609
36.8616
36.8627
36.8641
36.8659
36.8681
36.8706
36.8734
36.8765
36.8799
36.8837
36.8877
36.892
36.8965
36.9013
36.9063
36.9116
36.917
36.9227
36.9286
36.9346
36.9409
36.9473
36.9538
36.9606
36.9674
36.9744
36.9815
36.9887
36.996
37.0034
37.0109
37.0185
37.0261
37.0338
37.0415
37.0493
37.0571
37.065
37.0729
37.0807
37.0886
37.0965
37.1044
37.1122
37.1201
37.1279
37.1356
37.1434
37.151
37.1587
37.1662
37.1737
37.1811
37.1884
37.1957
37.2028
37.2099
37.2168
37.2236
37.2304
37.237
37.2435
37.2498
37.2561
37.2622
37.2681
37.2739
37.2796
37.2851
37.2904
37.2956
37.3007
37.3055
37.3102
37.3148
37.3191
37.3233
37.3273
37.3311
37.3347
37.3381
37.3414
37.3444
37.3473
37.3499
37.3524
37.3546
37.3567
37.3586
37.3602
37.3617
37.3629
37.3639
37.3648
37.3654
37.3658
37.366
51.4318
51.4283
51.4213
51.4113
51.3981
51.3824
51.364
51.3433
51.3202
51.2949
51.2673
51.2376
51.2056
51.1714
51.1351
51.0965
51.0558
51.013
50.9679
50.9208
50.8715
50.8201
50.7666
50.711
50.6534
50.5937
50.5321
50.4685
50.4029
50.3355
50.2661
50.1948
50.1218
50.0469
49.9703
49.8919
49.8118
49.73
49.6466
49.5615
49.4749
49.3868
49.2971
49.206
49.1135
49.0196
48.9243
48.8278
48.7299
48.6309
48.5307
48.4293
48.3268
48.2232
48.1186
48.013
47.9065
47.799
47.6907
47.5815
47.4716
47.3609
47.2495
47.1374
47.0247
46.9114
46.7975
46.6831
46.5683
46.453
46.3374
46.2214
46.1051
45.9885
45.8717
45.7547
45.6375
45.5203
45.4029
45.2855
45.1681
45.0508
44.9335
44.8163
44.6992
44.5823
44.4657
44.3492
44.2331
44.1172
44.0017
43.8866
43.7718
43.6575
43.5436
43.4303
43.3174
43.2051
43.0934
42.9823
42.8718
42.762
42.6529
42.5444
42.4367
42.3297
42.2235
42.1181
42.0136
41.9098
41.807
41.705
41.6039
41.5037
41.4044
41.3061
41.2088
41.1124
41.0171
40.9227
40.8294
40.7371
40.6459
40.5557
40.4666
40.3786
40.2916
40.2058
40.1211
40.0375
39.955
39.8737
39.7935
39.7144
39.6365
39.5598
39.4842
39.4098
39.3365
39.2644
39.1935
39.1237
39.0551
38.9877
38.9215
38.8564
38.7925
38.7298
38.6682
38.6078
38.5486
38.4905
38.4336
38.3778
38.3232
38.2697
38.2174
38.1662
38.1161
38.0671
38.0192
37.9725
37.9268
37.8822
37.8388
37.7963
37.755
37.7147
37.6755
37.6373
37.6001
37.564
37.5288
37.4947
37.4615
37.4294
37.3982
37.3679
37.3386
37.3103
37.2829
37.2564
37.2308
37.206
37.1822
37.1592
37.1371
37.1158
37.0954
37.0758
37.057
37.0389
37.0217
37.0052
36.9895
36.9746
36.9603
36.9468
36.934
36.9219
36.9104
36.8996
36.8895
36.8801
36.8712
36.863
36.8554
36.8483
36.8419
36.836
36.8306
36.8258
36.8216
36.8178
36.8146
36.8118
36.8095
36.8077
36.8064
36.8055
36.805
36.8049
36.8052
36.806
36.8071
36.8086
36.8104
36.8126
36.8152
36.818
36.8212
36.8247
36.8284
36.8325
36.8368
36.8414
36.8462
36.8512
36.8565
36.862
36.8678
36.8737
36.8798
36.886
36.8925
36.8991
36.9058
36.9127
36.9197
36.9268
36.934
36.9414
36.9488
36.9563
36.9639
36.9716
36.9793
36.9871
36.9949
37.0027
37.0106
37.0185
37.0264
37.0343
37.0422
37.0501
37.058
37.0658
37.0736
37.0814
37.0891
37.0968
37.1045
37.112
37.1195
37.1269
37.1343
37.1415
37.1487
37.1558
37.1627
37.1696
37.1763
37.1829
37.1894
37.1958
37.2021
37.2082
37.2141
37.2199
37.2256
37.2311
37.2365
37.2417
37.2467
37.2516
37.2563
37.2608
37.2652
37.2694
37.2734
37.2772
37.2808
37.2842
37.2875
37.2905
37.2934
37.296
37.2985
37.3008
37.3028
37.3047
37.3063
37.3078
37.309
37.3101
37.3109
37.3115
37.312
37.3122
51.3893
51.386
51.3791
51.3692
51.3563
51.3407
51.3225
51.3018
51.2788
51.2535
51.2259
51.1962
51.1641
51.1299
51.0935
51.0549
51.0141
50.9711
50.926
50.8788
50.8294
50.7779
50.7243
50.6687
50.611
50.5513
50.4895
50.4259
50.3602
50.2927
50.2232
50.1519
50.0788
50.0039
49.9272
49.8487
49.7685
49.6867
49.6032
49.5181
49.4315
49.3433
49.2536
49.1624
49.0698
48.9758
48.8805
48.7839
48.686
48.5869
48.4867
48.3852
48.2827
48.1791
48.0744
47.9688
47.8622
47.7547
47.6463
47.5371
47.4271
47.3163
47.2049
47.0928
46.98
46.8666
46.7527
46.6383
46.5235
46.4082
46.2925
46.1765
46.0601
45.9435
45.8267
45.7096
45.5924
45.4751
45.3578
45.2404
45.1229
45.0055
44.8882
44.771
44.6539
44.537
44.4204
44.3039
44.1877
44.0719
43.9563
43.8412
43.7264
43.6121
43.4983
43.3849
43.2721
43.1598
43.048
42.9369
42.8265
42.7166
42.6075
42.4991
42.3913
42.2844
42.1782
42.0728
41.9683
41.8646
41.7617
41.6597
41.5587
41.4585
41.3593
41.261
41.1637
41.0674
40.972
40.8777
40.7844
40.6922
40.601
40.5108
40.4218
40.3338
40.2469
40.1611
40.0765
39.9929
39.9105
39.8292
39.7491
39.6701
39.5922
39.5155
39.44
39.3656
39.2924
39.2204
39.1495
39.0798
39.0113
38.9439
38.8778
38.8127
38.7489
38.6862
38.6248
38.5644
38.5053
38.4472
38.3904
38.3347
38.2801
38.2267
38.1744
38.1233
38.0733
38.0244
37.9766
37.9299
37.8843
37.8398
37.7964
37.754
37.7128
37.6726
37.6334
37.5953
37.5582
37.5221
37.487
37.453
37.4199
37.3878
37.3567
37.3265
37.2973
37.269
37.2417
37.2152
37.1897
37.165
37.1413
37.1184
37.0963
37.0751
37.0548
37.0352
37.0165
36.9985
36.9814
36.965
36.9493
36.9344
36.9202
36.9068
36.894
36.882
36.8706
36.8599
36.8499
36.8404
36.8317
36.8235
36.8159
36.809
36.8026
36.7967
36.7915
36.7867
36.7825
36.7788
36.7756
36.7729
36.7707
36.769
36.7677
36.7668
36.7664
36.7664
36.7667
36.7675
36.7687
36.7702
36.7721
36.7744
36.777
36.7799
36.7831
36.7866
36.7904
36.7945
36.7989
36.8035
36.8084
36.8135
36.8188
36.8244
36.8301
36.8361
36.8422
36.8485
36.855
36.8616
36.8684
36.8753
36.8823
36.8895
36.8968
36.9042
36.9116
36.9192
36.9268
36.9345
36.9422
36.95
36.9579
36.9657
36.9736
36.9816
36.9895
36.9974
37.0054
37.0133
37.0212
37.0291
37.0369
37.0447
37.0525
37.0602
37.0678
37.0754
37.0829
37.0904
37.0977
37.105
37.1122
37.1193
37.1263
37.1331
37.1399
37.1465
37.153
37.1594
37.1657
37.1718
37.1778
37.1836
37.1893
37.1948
37.2002
37.2054
37.2105
37.2153
37.2201
37.2246
37.229
37.2331
37.2371
37.241
37.2446
37.248
37.2513
37.2543
37.2572
37.2599
37.2623
37.2646
37.2667
37.2685
37.2702
37.2717
37.2729
37.2739
37.2748
37.2754
37.2758
37.276
51.3293
51.326
51.3191
51.3093
51.2963
51.2807
51.2624
51.2417
51.2186
51.1932
51.1655
51.1355
51.1034
51.069
51.0325
50.9937
50.9528
50.9097
50.8645
50.8171
50.7677
50.7161
50.6624
50.6067
50.5489
50.4892
50.4274
50.3636
50.2979
50.2303
50.1608
50.0895
50.0163
49.9413
49.8645
49.7861
49.7058
49.624
49.5404
49.4553
49.3686
49.2803
49.1906
49.0994
49.0068
48.9128
48.8174
48.7208
48.6229
48.5238
48.4234
48.322
48.2194
48.1157
48.0111
47.9054
47.7988
47.6913
47.5829
47.4736
47.3636
47.2529
47.1414
47.0292
46.9165
46.8031
46.6892
46.5748
46.4599
46.3446
46.2289
46.1128
45.9965
45.8799
45.763
45.646
45.5288
45.4115
45.2941
45.1767
45.0593
44.9419
44.8246
44.7074
44.5904
44.4735
44.3568
44.2404
44.1242
44.0084
43.8929
43.7777
43.663
43.5487
43.4349
43.3215
43.2087
43.0965
42.9848
42.8737
42.7633
42.6535
42.5444
42.436
42.3283
42.2214
42.1153
42.0099
41.9054
41.8018
41.699
41.597
41.496
41.3959
41.2967
41.1985
41.1013
41.005
40.9097
40.8155
40.7223
40.6301
40.539
40.4489
40.3599
40.272
40.1852
40.0995
40.0149
39.9314
39.849
39.7678
39.6878
39.6088
39.5311
39.4545
39.379
39.3047
39.2316
39.1596
39.0889
39.0192
38.9508
38.8835
38.8175
38.7525
38.6888
38.6262
38.5648
38.5046
38.4455
38.3876
38.3308
38.2752
38.2207
38.1674
38.1152
38.0641
38.0142
37.9654
37.9177
37.8711
37.8256
37.7812
37.7379
37.6956
37.6545
37.6143
37.5753
37.5372
37.5002
37.4642
37.4293
37.3953
37.3623
37.3303
37.2993
37.2692
37.2401
37.2119
37.1846
37.1583
37.1328
37.1083
37.0846
37.0618
37.0398
37.0187
36.9984
36.979
36.9603
36.9424
36.9253
36.909
36.8935
36.8786
36.8645
36.8512
36.8385
36.8265
36.8152
36.8046
36.7946
36.7853
36.7766
36.7685
36.761
36.7541
36.7478
36.742
36.7368
36.7321
36.728
36.7244
36.7213
36.7186
36.7165
36.7148
36.7135
36.7127
36.7124
36.7124
36.7129
36.7137
36.7149
36.7165
36.7185
36.7208
36.7234
36.7264
36.7297
36.7332
36.7371
36.7413
36.7457
36.7503
36.7553
36.7604
36.7658
36.7714
36.7772
36.7832
36.7893
36.7957
36.8022
36.8089
36.8157
36.8227
36.8297
36.837
36.8443
36.8517
36.8592
36.8668
36.8744
36.8821
36.8899
36.8978
36.9056
36.9135
36.9215
36.9294
36.9374
36.9453
36.9533
36.9612
36.9692
36.9771
36.9849
36.9928
37.0006
37.0083
37.016
37.0236
37.0311
37.0386
37.046
37.0533
37.0605
37.0676
37.0746
37.0815
37.0882
37.0949
37.1014
37.1078
37.1141
37.1202
37.1262
37.1321
37.1378
37.1433
37.1487
37.1539
37.159
37.1639
37.1686
37.1732
37.1775
37.1817
37.1857
37.1896
37.1932
37.1967
37.1999
37.203
37.2058
37.2085
37.211
37.2133
37.2153
37.2172
37.2189
37.2203
37.2216
37.2226
37.2235
37.2241
37.2245
37.2247
51.2839
51.2807
51.274
51.2642
51.2515
51.236
51.2178
51.1972
51.1742
51.1488
51.1211
51.0911
51.0589
51.0245
50.9879
50.949
50.908
50.8649
50.8195
50.7721
50.7225
50.6708
50.6171
50.5613
50.5034
50.4435
50.3817
50.3178
50.252
50.1843
50.1147
50.0433
49.97
49.895
49.8181
49.7395
49.6592
49.5773
49.4937
49.4084
49.3216
49.2333
49.1435
49.0522
48.9595
48.8654
48.77
48.6733
48.5753
48.4761
48.3757
48.2741
48.1715
48.0678
47.963
47.8573
47.7506
47.643
47.5345
47.4252
47.3151
47.2043
47.0927
46.9805
46.8676
46.7542
46.6402
46.5258
46.4108
46.2954
46.1797
46.0636
45.9472
45.8305
45.7136
45.5965
45.4793
45.3619
45.2445
45.127
45.0096
44.8922
44.7748
44.6576
44.5405
44.4235
44.3068
44.1903
44.0742
43.9583
43.8427
43.7276
43.6128
43.4985
43.3847
43.2713
43.1585
43.0462
42.9345
42.8234
42.713
42.6032
42.4941
42.3857
42.278
42.1711
42.065
41.9596
41.8551
41.7515
41.6487
41.5468
41.4458
41.3457
41.2465
41.1483
41.0511
40.9549
40.8596
40.7654
40.6722
40.5801
40.489
40.3989
40.31
40.2221
40.1353
40.0497
39.9651
39.8817
39.7994
39.7182
39.6382
39.5593
39.4816
39.4051
39.3297
39.2554
39.1824
39.1105
39.0398
38.9702
38.9018
38.8346
38.7686
38.7038
38.6401
38.5776
38.5163
38.4561
38.3971
38.3392
38.2825
38.227
38.1726
38.1194
38.0673
38.0163
37.9664
37.9177
37.8701
37.8236
37.7782
37.7338
37.6906
37.6484
37.6073
37.5673
37.5283
37.4904
37.4534
37.4176
37.3827
37.3488
37.3159
37.284
37.253
37.223
37.194
37.1659
37.1387
37.1125
37.0871
37.0626
37.039
37.0163
36.9944
36.9734
36.9532
36.9338
36.9152
36.8975
36.8805
36.8642
36.8487
36.834
36.82
36.8067
36.7941
36.7822
36.771
36.7605
36.7506
36.7413
36.7327
36.7247
36.7173
36.7104
36.7042
36.6985
36.6934
36.6888
36.6847
36.6812
36.6781
36.6756
36.6735
36.6718
36.6707
36.67
36.6697
36.6698
36.6703
36.6712
36.6725
36.6742
36.6762
36.6785
36.6812
36.6843
36.6876
36.6912
36.6952
36.6994
36.7038
36.7086
36.7135
36.7187
36.7242
36.7298
36.7357
36.7417
36.7479
36.7543
36.7609
36.7676
36.7745
36.7815
36.7886
36.7959
36.8032
36.8107
36.8182
36.8259
36.8336
36.8413
36.8492
36.857
36.8649
36.8729
36.8809
36.8889
36.8968
36.9048
36.9128
36.9208
36.9288
36.9367
36.9446
36.9525
36.9603
36.9681
36.9758
36.9834
36.991
36.9985
37.0059
37.0132
37.0204
37.0276
37.0346
37.0415
37.0483
37.055
37.0615
37.0679
37.0742
37.0804
37.0864
37.0923
37.098
37.1035
37.1089
37.1142
37.1193
37.1242
37.1289
37.1335
37.1379
37.1421
37.1461
37.1499
37.1536
37.157
37.1603
37.1634
37.1663
37.1689
37.1714
37.1737
37.1758
37.1776
37.1793
37.1808
37.182
37.1831
37.1839
37.1845
37.185
37.1852
51.2269
51.2237
51.217
51.2073
51.1946
51.1792
51.161
51.1404
51.1173
51.0919
51.0641
51.034
51.0017
50.9672
50.9304
50.8915
50.8504
50.8071
50.7617
50.7141
50.6644
50.6126
50.5588
50.5029
50.4449
50.3849
50.323
50.259
50.1931
50.1254
50.0557
49.9842
49.9108
49.8356
49.7587
49.6801
49.5997
49.5176
49.4339
49.3486
49.2618
49.1734
49.0835
48.9921
48.8993
48.8052
48.7097
48.6129
48.5148
48.4155
48.3151
48.2134
48.1107
48.0069
47.9021
47.7963
47.6896
47.5819
47.4734
47.364
47.2538
47.1429
47.0313
46.919
46.8061
46.6927
46.5786
46.4641
46.3491
46.2337
46.1179
46.0017
45.8853
45.7685
45.6516
45.5345
45.4172
45.2998
45.1823
45.0648
44.9473
44.8299
44.7125
44.5952
44.4781
44.3612
44.2444
44.1279
44.0117
43.8958
43.7803
43.6651
43.5503
43.436
43.3222
43.2088
43.096
42.9837
42.872
42.7609
42.6505
42.5407
42.4316
42.3232
42.2156
42.1087
42.0026
41.8973
41.7928
41.6891
41.5864
41.4845
41.3835
41.2835
41.1843
41.0862
40.989
40.8928
40.7976
40.7034
40.6103
40.5182
40.4271
40.3372
40.2483
40.1604
40.0737
39.9881
39.9036
39.8203
39.738
39.6569
39.577
39.4982
39.4205
39.3441
39.2687
39.1946
39.1216
39.0498
38.9791
38.9097
38.8414
38.7743
38.7083
38.6436
38.58
38.5176
38.4563
38.3962
38.3373
38.2796
38.223
38.1675
38.1132
38.0601
38.0081
37.9572
37.9074
37.8588
37.8113
37.7648