/*--------------------------------*- C++ -*----------------------------------*\
| =========                 |                                                 |
| \\      /  F ield         | OpenFOAM: The Open Source CFD Toolbox           |
|  \\    /   O peration     | Version:  2212                                  |
|   \\  /    A nd           | Website:  www.openfoam.com                      |
|    \\/     M anipulation  |                                                 |
\*---------------------------------------------------------------------------*/
FoamFile
{
    version     2.0;
    format      ascii;
    arch        "LSB;label=32;scalar=64";
    class       surfaceScalarField;
    location    "790";
    object      phi;
}
// * * * * * * * * * * * * * * * * * * * * * * * * * * * * * * * * * * * * * //

dimensions      [1 0 -1 0 0 0 0];

oriented        oriented;

internalField   nonuniform List<scalar> 
408640
(
-984.276
984.459
-1940.15
955.871
-2840.8
900.649
-3670.68
829.893
-4426.33
755.674
-5114.14
687.831
-5746.67
632.561
-6338.77
592.138
-6904.51
565.773
-7455.35
550.886
-7999.6
544.286
-8542.56
542.996
-9087.17
544.654
-9634.75
547.619
-10185.6
550.868
-10739.4
553.844
-11295.6
556.294
-11853.7
558.142
-12413.1
559.401
-12973.2
560.125
-13533.5
560.376
-14093.7
560.216
-14653.4
559.697
-15212.2
558.864
-15769.9
557.754
-16326.3
556.397
-16881
554.817
-17434
553.036
-17985.1
551.07
-18534
548.934
-19080.6
546.639
-19624.7
544.196
-20166.3
541.613
-20705.1
538.899
-21241.2
536.06
-21774.2
533.102
-22304.2
530.03
-22831
526.848
-23354.5
523.561
-23874.7
520.173
-24391.3
516.687
-24904.4
513.107
-25413.8
509.434
-25919.4
505.672
-26421.2
501.824
-26919
497.892
-27412.9
493.878
-27902.6
489.785
-28388.2
485.614
-28869.5
481.367
-29346.5
477.047
-29819.1
472.655
-30287.3
468.193
-30750.9
463.663
-31209.9
459.067
-31664.3
454.406
-32113.9
449.682
-32558.8
444.896
-32998.8
440.051
-33433.9
435.148
-33864
430.189
-34289.1
425.174
-34709.2
420.107
-35124.1
414.987
-35533.9
409.817
-35938.4
404.599
-36337.7
399.334
-36731.7
394.023
-37120.3
388.668
-37503.5
383.27
-37881.3
377.832
-38253.6
372.354
-38620.4
366.838
-38981.6
361.285
-39337.3
355.697
-39687.3
350.076
-40031.6
344.423
-40370.3
338.739
-40703.3
333.026
-41030.5
327.285
-41352
321.518
-41667.7
315.727
-41977.5
309.911
-42281.5
304.074
-42579.7
298.217
-42872
292.34
-43158.3
286.446
-43438.8
280.536
-43713.4
274.61
-43982
268.671
-44244.6
262.72
-44501.3
256.758
-44752.1
250.787
-44996.8
244.807
-45235.6
238.821
-45468.3
232.829
-45695.1
226.833
-45915.9
220.834
-46130.6
214.834
-46339.4
208.833
-46542.2
202.833
-46738.9
196.835
-46929.7
190.841
-47114.5
184.851
-47293.3
178.867
-47466.1
172.89
-47633
166.92
-47793.9
160.96
-47948.8
155.011
-48097.8
149.072
-48240.9
143.147
-48378
137.235
-48509.3
131.337
-48634.7
125.455
-48754.2
119.59
-48867.9
113.743
-48975.7
107.914
-49077.8
102.105
-49174
96.3171
-49264.5
90.5504
-49349.2
84.8061
-49428.3
79.0852
-49501.6
73.3885
-49569.2
67.717
-49631.2
62.0713
-49687.6
56.4523
-49738.4
50.8609
-49783.6
45.2978
-49823.3
39.7638
-49857.5
34.2596
-49886.2
28.7858
-49909.5
23.3433
-49927.4
17.9327
-49939.9
12.5546
-49947
7.20968
-49948.9
1.89858
-49945.4
-3.37813
-49936.7
-8.61986
-49922.8
-13.8261
-49903.8
-18.9962
-49879.6
-24.1297
-49850.3
-29.2262
-49816
-34.285
-49776.6
-39.3058
-49732.3
-44.2882
-49683
-49.2316
-49628.8
-54.1358
-49569.7
-59.0002
-49505.8
-63.8246
-49437.2
-68.6086
-49363.8
-73.3518
-49285.7
-78.054
-49202.9
-82.7148
-49115.5
-87.334
-49023.6
-91.9113
-48927.1
-96.4464
-48826.1
-100.939
-48720.7
-105.389
-48610.8
-109.797
-48496.6
-114.162
-48378.1
-118.483
-48255.3
-122.761
-48128.3
-126.996
-47997.1
-131.187
-47861.7
-135.335
-47722.2
-139.439
-47578.7
-143.5
-47431.1
-147.516
-47279.6
-151.489
-47124.2
-155.418
-46964.9
-159.303
-46801.7
-163.144
-46634.8
-166.942
-46464.1
-170.695
-46289.6
-174.405
-46111.6
-178.071
-45929.9
-181.693
-45744.6
-185.272
-45555.8
-188.808
-45363.5
-192.3
-45167.7
-195.748
-44968.6
-199.154
-44766.1
-202.516
-44560.3
-205.836
-44351.2
-209.113
-44138.8
-212.347
-43923.3
-215.539
-43704.7
-218.688
-43482.9
-221.796
-43258.1
-224.862
-43030.2
-227.886
-42799.4
-230.869
-42565.6
-233.81
-42328.9
-236.711
-42089.4
-239.57
-41847.1
-242.39
-41602
-245.169
-41354.1
-247.908
-41103.6
-250.607
-40850.3
-253.267
-40594.5
-255.888
-40336.1
-258.47
-40075.2
-261.013
-39811.7
-263.517
-39545.8
-265.984
-39277.5
-268.413
-39006.8
-270.805
-38733.7
-273.159
-38458.3
-275.477
-38180.7
-277.758
-37900.8
-280.003
-37618.7
-282.211
-37334.4
-284.385
-37048
-286.523
-36759.5
-288.626
-36468.9
-290.695
-36176.3
-292.729
-35881.7
-294.73
-35585.1
-296.697
-35286.6
-298.63
-34986.2
-300.531
-34684
-302.399
-34379.9
-304.235
-34074
-306.039
-33766.4
-307.811
-33457
-309.553
-33145.9
-311.263
-32833.1
-312.943
-32518.7
-314.592
-32202.6
-316.212
-31885
-317.803
-31565.8
-319.364
-31245.1
-320.896
-30922.9
-322.4
-30599.3
-323.875
-30274.1
-325.323
-29947.6
-326.744
-29619.7
-328.137
-29290.4
-329.503
-28959.7
-330.843
-28627.8
-332.157
-28294.6
-333.445
-27960.1
-334.708
-27624.4
-335.945
-27287.5
-337.158
-26949.4
-338.346
-26610.1
-339.51
-26269.7
-340.649
-25928.2
-341.766
-25585.6
-342.859
-25241.9
-343.929
-24897.2
-344.976
-24551.5
-346.001
-24204.8
-347.004
-23857
-347.986
-23508.4
-348.945
-23158.8
-349.884
-22808.3
-350.802
-22456.9
-351.699
-22104.6
-352.576
-21751.4
-353.432
-21397.5
-354.269
-21042.7
-355.087
-20687.1
-355.885
-20330.8
-356.664
-19973.7
-357.424
-19615.8
-358.166
-19257.3
-358.89
-18898
-359.596
-18538
-360.284
-18177.4
-360.954
-17816.1
-361.607
-17454.2
-362.243
-17091.7
-362.863
-16728.6
-363.465
-16364.9
-364.052
-16000.6
-364.622
-15635.8
-365.176
-15270.4
-365.715
-14904.6
-366.238
-14538.2
-366.745
-14171.3
-367.237
-13804
-367.715
-13436.2
-368.177
-13067.9
-368.625
-12699.2
-369.059
-12330.1
-369.478
-11960.6
-369.883
-11590.7
-370.275
-11220.5
-370.652
-10849.8
-371.016
-10478.9
-371.366
-10107.5
-371.704
-9735.92
-372.028
-9363.97
-372.339
-8991.73
-372.637
-8619.21
-372.922
-8246.42
-373.195
-7873.36
-373.456
-7500.06
-373.704
-7126.53
-373.94
-6752.77
-374.164
-6378.8
-374.377
-6004.63
-374.578
-5630.28
-374.767
-5255.74
-374.945
-4881.04
-375.111
-4506.19
-375.267
-4131.19
-375.411
-3756.07
-375.544
-3380.82
-375.666
-3005.46
-375.777
-2630
-375.876
-2254.45
-375.964
-1878.83
-376.04
-1503.14
-376.105
-1127.4
-376.158
-751.626
-376.198
-375.82
-376.226
-376.239
-968.362
1952.81
-1909.86
1897.37
-2799.87
1790.66
-3623.65
1653.69
-4377.49
1509.53
-5066.85
1377.22
-5703.16
1268.9
-6300.16
1189.17
-6871.04
1136.69
-7426.7
1106.59
-7975.13
1092.76
-8521.53
1089.44
-9068.87
1092.03
-9618.53
1097.32
-10170.9
1103.28
-10725.8
1108.81
-11282.9
1113.37
-11841.5
1116.81
-12401.2
1119.13
-12961.4
1120.42
-13521.8
1120.81
-14082
1120.4
-14641.5
1119.29
-15200.2
1117.56
-15757.7
1115.3
-16313.8
1112.55
-16868.3
1109.36
-17421
1105.77
-17971.7
1101.82
-18520.3
1097.53
-19066.5
1092.93
-19610.3
1088.03
-20151.5
1082.86
-20690
1077.42
-21225.6
1071.74
-21758.3
1065.81
-22287.9
1059.66
-22814.3
1053.3
-23337.4
1046.72
-23857.1
1039.94
-24373.4
1032.97
-24886
1025.8
-25395
1018.46
-25900.2
1010.93
-26401.6
1003.24
-26899.1
995.373
-27392.5
987.345
-27881.8
979.158
-28367
970.816
-28847.9
962.323
-29324.5
953.684
-29796.7
944.901
-30264.4
935.978
-30727.6
926.919
-31186.2
917.728
-31640.2
908.407
-32089.4
898.961
-32533.9
889.392
-32973.5
879.704
-33408.2
869.9
-33837.9
859.982
-34262.7
849.956
-34682.3
839.822
-35096.9
829.586
-35506.3
819.249
-35910.4
808.815
-36309.3
798.287
-36702.9
787.667
-37091.2
776.96
-37474
766.168
-37851.4
755.293
-38223.3
744.34
-38589.8
733.311
-38950.6
722.209
-39305.9
711.036
-39655.6
699.797
-39999.6
688.494
-40337.9
677.129
-40670.6
665.707
-40997.4
654.229
-41318.6
642.698
-41633.9
631.118
-41943.4
619.492
-42247.1
607.821
-42544.9
596.11
-42836.9
584.36
-43123
572.576
-43403.1
560.758
-43677.4
548.911
-43945.7
537.037
-44208
525.139
-44464.4
513.219
-44714.9
501.281
-44959.3
489.326
-45197.8
477.357
-45430.3
465.378
-45656.8
453.39
-45877.3
441.397
-46091.8
429.401
-46300.3
417.403
-46502.8
405.408
-46699.3
393.417
-46889.8
381.432
-47074.4
369.457
-47252.9
357.493
-47425.5
345.543
-47592.1
333.61
-47752.8
321.694
-47907.5
309.8
-48056.3
297.928
-48199.2
286.081
-48336.1
274.262
-48467.2
262.472
-48592.4
250.713
-48711.7
238.988
-48825.2
227.298
-48932.9
215.646
-49034.7
204.033
-49130.8
192.461
-49221.1
180.933
-49305.7
169.449
-49384.5
158.012
-49457.7
146.624
-49525.2
135.286
-49587.1
124
-49643.3
112.767
-49694
101.589
-49739.1
90.4678
-49778.7
79.4048
-49812.7
68.4014
-49841.3
57.4591
-49864.5
46.5792
-49882.3
35.763
-49894.7
25.012
-49901.7
14.3273
-49903.5
3.71018
-49899.9
-6.83812
-49891.2
-17.3165
-49877.2
-27.7237
-49858.1
-38.0589
-49833.8
-48.3208
-49804.5
-58.5086
-49770.1
-68.6212
-49730.7
-78.6577
-49686.3
-88.6174
-49637
-98.4992
-49582.8
-108.302
-49523.7
-118.026
-49459.8
-127.67
-49391.1
-137.233
-49317.7
-146.714
-49239.6
-156.114
-49156.8
-165.43
-49069.4
-174.664
-48977.5
-183.813
-48881
-192.879
-48780
-201.859
-48674.6
-210.755
-48564.8
-219.565
-48450.7
-228.289
-48332.2
-236.927
-48209.4
-245.479
-48082.4
-253.944
-47951.3
-262.321
-47816
-270.612
-47676.6
-278.816
-47533.1
-286.932
-47385.6
-294.96
-47234.2
-302.901
-47078.8
-310.754
-46919.6
-318.52
-46756.5
-326.198
-46589.7
-333.788
-46419.1
-341.291
-46244.8
-348.706
-46066.8
-356.033
-45885.2
-363.274
-45700
-370.427
-45511.4
-377.493
-45319.2
-384.473
-45123.6
-391.366
-44924.6
-398.172
-44722.2
-404.893
-44516.5
-411.528
-44307.6
-418.078
-44095.4
-424.542
-43880
-430.922
-43661.5
-437.217
-43439.9
-443.428
-43215.3
-449.555
-42987.6
-455.6
-42756.9
-461.561
-42523.3
-467.44
-42286.9
-473.238
-42047.5
-478.953
-41805.4
-484.588
-41560.4
-490.142
-41312.8
-495.617
-41062.4
-501.012
-40809.4
-506.328
-40553.8
-511.566
-40295.6
-516.726
-40034.9
-521.808
-39771.7
-526.814
-39506
-531.744
-39237.9
-536.599
-38967.4
-541.379
-38694.6
-546.084
-38419.5
-550.716
-38142
-555.275
-37862.4
-559.761
-37580.5
-564.176
-37296.5
-568.519
-37010.3
-572.792
-36722.1
-576.996
-36431.8
-581.13
-36139.4
-585.196
-35845.1
-589.194
-35548.8
-593.124
-35250.6
-596.989
-34950.5
-600.787
-34648.5
-604.521
-34344.7
-608.19
-34039.1
-611.795
-33731.7
-615.337
-33422.6
-618.817
-33111.8
-622.235
-32799.3
-625.592
-32485.2
-628.889
-32169.4
-632.126
-31852.1
-635.304
-31533.2
-638.424
-31212.8
-641.486
-30890.9
-644.491
-30567.6
-647.44
-30242.8
-650.334
-29916.5
-653.172
-29588.9
-655.956
-29260
-658.687
-28929.7
-661.365
-28598
-663.99
-28265.1
-666.564
-27931
-669.087
-27595.6
-671.56
-27259
-673.983
-26921.3
-676.357
-26582.3
-678.683
-26242.3
-680.961
-25901.1
-683.191
-25558.8
-685.376
-25215.5
-687.514
-24871.1
-689.607
-24525.8
-691.656
-24179.4
-693.66
-23832
-695.621
-23483.7
-697.539
-23134.5
-699.414
-22784.3
-701.248
-22433.2
-703.041
-22081.3
-704.793
-21728.6
-706.505
-21374.9
-708.177
-21020.5
-709.81
-20665.3
-711.405
-20309.3
-712.962
-19952.6
-714.482
-19595.1
-715.964
-19236.9
-717.41
-18878
-718.82
-18518.4
-720.195
-18158.2
-721.535
-17797.3
-722.84
-17435.8
-724.111
-17073.6
-725.348
-16710.9
-726.553
-16347.6
-727.724
-15983.7
-728.864
-15619.2
-729.971
-15254.2
-731.047
-14888.8
-732.092
-14522.8
-733.106
-14156.3
-734.09
-13789.3
-735.044
-13421.9
-735.968
-13054
-736.863
-12685.7
-737.729
-12317
-738.567
-11947.9
-739.377
-11578.4
-740.158
-11208.5
-740.913
-10838.3
-741.64
-10467.7
-742.34
-10096.8
-743.014
-9725.54
-743.661
-9354
-744.282
-8982.15
-744.878
-8610.02
-745.448
-8237.62
-745.994
-7864.97
-746.514
-7492.06
-747.01
-7118.93
-747.482
-6745.57
-747.93
-6372
-748.355
-5998.23
-748.756
-5624.27
-749.134
-5250.13
-749.49
-4875.83
-749.822
-4501.38
-750.133
-4126.79
-750.421
-3752.06
-750.687
-3377.21
-750.93
-3002.25
-751.151
-2627.19
-751.35
-2252.05
-751.526
-1876.83
-751.679
-1501.54
-751.808
-1126.2
-751.913
-750.826
-751.994
-375.422
-752.049
-752.08
-947.21
2900.01
-1869.7
2819.85
-2745.35
2666.32
-3560.65
2468.99
-4311.72
2260.62
-5002.99
2068.52
-5644.38
1910.33
-6248.16
1792.98
-6826.29
1714.86
-7388.87
1669.2
-7943.39
1647.32
-8494.88
1640.97
-9046.32
1643.51
-9599.19
1650.23
-10154
1658.16
-10710.8
1665.63
-11269.2
1671.84
-11828.9
1676.5
-12389.3
1679.59
-12950.1
1681.24
-13510.8
1681.59
-14071.2
1680.79
-14630.9
1678.98
-15189.5
1676.29
-15747
1672.8
-16303
1668.6
-16857.4
1663.76
-17409.9
1658.33
-17960.4
1652.36
-18508.7
1645.89
-19054.7
1638.96
-19598.2
1631.59
-20139.1
1623.81
-20677.3
1615.63
-21212.6
1607.09
-21745
1598.2
-22274.2
1588.96
-22800.3
1579.4
-23323
1569.53
-23842.4
1559.35
-24358.3
1548.89
-24870.6
1538.14
-25379.2
1527.12
-25884.1
1515.83
-26385.1
1504.28
-26882.1
1492.48
-27375.2
1480.44
-27864.1
1468.15
-28348.9
1455.64
-28829.4
1442.9
-29305.6
1429.94
-29777.5
1416.77
-30244.8
1403.38
-30707.7
1389.8
-31165.9
1376.01
-31619.5
1362.03
-32068.3
1347.86
-32512.4
1333.51
-32951.6
1318.98
-33385.9
1304.27
-33815.3
1289.4
-34239.7
1274.36
-34659
1259.17
-35073.1
1243.81
-35482.2
1228.31
-35886
1212.66
-36284.5
1196.87
-36677.7
1180.95
-37065.6
1164.89
-37448.1
1148.71
-37825.1
1132.4
-38196.7
1115.97
-38562.8
1099.43
-38923.3
1082.78
-39278.2
1066.03
-39627.6
1049.17
-39971.2
1032.22
-40309.2
1015.18
-40641.5
998.05
-40968.1
980.837
-41288.9
963.546
-41603.9
946.181
-41913.1
928.746
-42216.4
911.245
-42513.9
893.683
-42805.6
876.064
-43091.3
858.392
-43371.2
840.671
-43645.1
822.906
-43913.1
805.1
-44175.2
787.258
-44431.3
769.384
-44681.4
751.482
-44925.6
733.555
-45163.8
715.608
-45396
697.645
-45622.2
679.67
-45842.4
661.686
-46056.6
643.697
-46264.9
625.707
-46467.1
607.72
-46663.4
589.74
-46853.7
571.769
-47037.9
553.813
-47216.3
535.873
-47388.6
517.955
-47555
500.061
-47715.4
482.194
-47869.9
464.359
-48018.5
446.558
-48161.1
428.794
-48297.9
411.072
-48428.7
393.394
-48553.7
375.762
-48672.8
358.181
-48786.1
340.654
-48893.6
323.182
-48995.2
305.77
-49091.1
288.419
-49181.3
271.134
-49265.7
253.915
-49344.3
236.767
-49417.3
219.692
-49484.7
202.692
-49546.4
185.77
-49602.5
168.928
-49653
152.168
-49697.9
135.494
-49737.4
118.907
-49771.3
102.409
-49799.8
86.0026
-49822.8
69.69
-49840.5
53.4732
-49852.8
37.3539
-49859.7
21.3343
-49861.3
5.41601
-49857.7
-10.399
-49848.9
-26.1092
-49834.8
-41.7127
-49815.6
-57.208
-49791.3
-72.5935
-49761.8
-87.8677
-49727.4
-103.029
-49687.9
-118.077
-49643.5
-133.009
-49594.1
-147.824
-49539.8
-162.521
-49480.7
-177.1
-49416.7
-191.558
-49348
-205.895
-49274.6
-220.11
-49196.4
-234.201
-49113.6
-248.169
-49026.2
-262.012
-48934.3
-275.729
-48837.8
-289.32
-48736.8
-302.783
-48631.4
-316.12
-48521.6
-329.327
-48407.5
-342.407
-48289
-355.356
-48166.3
-368.177
-48039.3
-380.867
-47908.2
-393.427
-47772.9
-405.856
-47633.5
-418.154
-47490.1
-430.321
-47342.7
-442.357
-47191.3
-454.261
-47036
-466.034
-46876.8
-477.675
-46713.8
-489.185
-46547
-500.564
-46376.5
-511.811
-46202.3
-522.927
-46024.4
-533.911
-45842.9
-544.765
-45657.8
-555.489
-45469.2
-566.081
-45277.2
-576.544
-45081.7
-586.877
-44882.8
-597.081
-44680.5
-607.155
-44474.9
-617.102
-44266.1
-626.919
-44054.1
-636.61
-43838.8
-646.173
-43620.5
-655.61
-43399
-664.92
-43174.5
-674.105
-42947
-683.166
-42716.4
-692.102
-42483
-700.915
-42246.7
-709.605
-42007.5
-718.173
-41765.5
-726.619
-41520.8
-734.945
-41273.3
-743.151
-41023.1
-751.237
-40770.3
-759.206
-40514.9
-767.057
-40256.9
-774.791
-39996.4
-782.41
-39733.3
-789.914
-39467.9
-797.304
-39200
-804.58
-38929.7
-811.744
-38657.1
-818.797
-38382.1
-825.74
-38104.9
-832.573
-37825.5
-839.298
-37543.9
-845.915
-37260.1
-852.425
-36974.1
-858.83
-36686.1
-865.13
-36396.1
-871.327
-36104
-877.421
-35809.9
-883.413
-35513.8
-889.305
-35215.8
-895.097
-34916
-900.79
-34614.3
-906.386
-34310.7
-911.885
-34005.4
-917.289
-33698.3
-922.598
-33389.4
-927.813
-33078.9
-932.936
-32766.7
-937.968
-32452.8
-942.909
-32137.4
-947.76
-31820.3
-952.524
-31501.7
-957.199
-31181.6
-961.789
-30860
-966.293
-30536.9
-970.713
-30212.4
-975.049
-29886.5
-979.303
-29559.2
-983.476
-29230.5
-987.569
-28900.5
-991.582
-28569.2
-995.517
-28236.6
-999.375
-27902.8
-1003.16
-27567.7
-1006.86
-27231.5
-1010.49
-26894
-1014.05
-26555.4
-1017.54
-26215.7
-1020.95
-25874.8
-1024.29
-25532.9
-1027.57
-25189.9
-1030.77
-24845.8
-1033.91
-24500.8
-1036.98
-24154.7
-1039.98
-23807.7
-1042.92
-23459.7
-1045.79
-23110.8
-1048.61
-22761
-1051.35
-22410.3
-1054.04
-22058.7
-1056.67
-21706.3
-1059.23
-21353
-1061.74
-20999
-1064.19
-20644.1
-1066.58
-20288.5
-1068.91
-19932.1
-1071.19
-19575
-1073.41
-19217.1
-1075.57
-18858.6
-1077.69
-18499.4
-1079.75
-18139.5
-1081.75
-17778.9
-1083.71
-17417.8
-1085.62
-17056
-1087.47
-16693.6
-1089.27
-16330.7
-1091.03
-15967.1
-1092.74
-15603.1
-1094.4
-15238.5
-1096.01
-14873.3
-1097.57
-14507.7
-1099.09
-14141.6
-1100.57
-13775
-1102
-13408
-1103.38
-13040.5
-1104.72
-12672.6
-1106.02
-12304.2
-1107.28
-11935.5
-1108.49
-11566.4
-1109.66
-11196.9
-1110.79
-10827
-1111.88
-10456.8
-1112.93
-10086.3
-1113.94
-9715.42
-1114.91
-9344.26
-1115.84
-8972.8
-1116.73
-8601.05
-1117.59
-8229.04
-1118.41
-7856.77
-1119.19
-7484.25
-1119.93
-7111.5
-1120.64
-6738.53
-1121.31
-6365.35
-1121.94
-5991.97
-1122.55
-5618.4
-1123.11
-5244.66
-1123.64
-4870.75
-1124.14
-4496.68
-1124.61
-4122.48
-1125.04
-3748.14
-1125.44
-3373.68
-1125.8
-2999.12
-1126.14
-2624.45
-1126.43
-2249.7
-1126.7
-1874.87
-1126.93
-1499.97
-1127.12
-1125.03
-1127.28
-750.041
-1127.4
-375.027
-1127.48
-1127.53
-919.21
3819.21
-1816.57
3717.21
-2673.23
3522.98
-3477.27
3273.04
-4224.68
3008.05
-4918.56
2762.43
-5566.89
2558.69
-6179.93
2406.06
-6768.04
2303
-7340.15
2241.35
-7903.14
2210.35
-8461.77
2199.64
-9019
2200.78
-9576.47
2207.73
-10134.9
2216.62
-10694.4
2225.22
-11255
2232.43
-11816.3
2237.81
-12377.9
2241.3
-12939.7
2243
-13501.1
2243.08
-14062
2241.71
-14622
2239.06
-15181
2235.28
-15738.6
2230.47
-16294.7
2224.75
-16849.1
2218.19
-17401.6
2210.86
-17952
2202.83
-18500.3
2194.15
-19046.1
2184.85
-19589.5
2174.98
-20130.2
2164.57
-20668.2
2153.65
-21203.3
2142.23
-21735.4
2130.35
-22264.4
2118.01
-22790.2
2105.25
-23312.7
2092.07
-23831.8
2078.49
-24347.4
2064.52
-24859.4
2050.18
-25367.7
2035.48
-25872.2
2020.42
-26372.9
2005.01
-26869.7
1989.27
-27362.4
1973.21
-27851.1
1956.83
-28335.5
1940.14
-28815.7
1923.15
-29291.6
1905.87
-29763.1
1888.31
-30230.1
1870.46
-30692.6
1852.34
-31150.5
1833.96
-31603.8
1815.32
-32052.3
1796.43
-32496
1777.29
-32934.9
1757.92
-33368.9
1738.32
-33798
1718.49
-34222
1698.44
-34640.9
1678.17
-35054.8
1657.71
-35463.5
1637.04
-35866.9
1616.18
-36265.1
1595.13
-36658
1573.89
-37045.6
1552.49
-37427.7
1530.91
-37804.4
1509.17
-38175.7
1487.27
-38541.4
1465.22
-38901.6
1443.03
-39256.2
1420.69
-39605.2
1398.22
-39948.6
1375.62
-40286.2
1352.91
-40618.2
1330.07
-40944.4
1307.12
-41264.9
1284.07
-41579.6
1260.93
-41888.5
1237.68
-42191.5
1214.35
-42488.7
1190.94
-42780.1
1167.46
-43065.5
1143.9
-43345
1120.28
-43618.7
1096.6
-43886.4
1072.86
-44148.1
1049.08
-44403.9
1025.25
-44653.8
1001.39
-44897.7
977.491
-45135.6
953.569
-45367.5
929.624
-45593.4
905.663
-45813.3
881.691
-46027.3
857.713
-46235.2
833.733
-46437.2
809.758
-46633.2
785.791
-46823.2
761.838
-47007.2
737.903
-47185.3
713.991
-47357.4
690.107
-47523.5
666.256
-47683.7
642.441
-47837.9
618.668
-47986.2
594.941
-48128.6
571.265
-48265.1
547.643
-48395.8
524.08
-48520.5
500.58
-48639.4
477.146
-48752.5
453.784
-48859.7
430.497
-48961.2
407.289
-49056.8
384.164
-49146.8
361.125
-49230.9
338.175
-49309.4
315.32
-49382.2
292.562
-49449.4
269.903
-49510.9
247.349
-49566.8
224.902
-49617.1
202.565
-49661.9
180.342
-49701.2
158.234
-49734.9
136.246
-49763.2
114.38
-49786.1
92.6395
-49803.6
71.0262
-49815.7
49.5431
-49822.5
28.1928
-49824
6.97778
-49820.3
-14.0996
-49811.3
-35.0371
-49797.1
-55.8324
-49777.8
-76.4834
-49753.3
-96.988
-49723.8
-117.344
-49689.2
-137.55
-49649.6
-157.604
-49605
-177.504
-49555.6
-197.248
-49501.2
-216.835
-49442
-236.263
-49377.9
-255.531
-49309.2
-274.638
-49235.6
-293.581
-49157.4
-312.36
-49074.6
-330.974
-48987.1
-349.422
-48895.1
-367.702
-48798.5
-385.813
-48697.5
-403.755
-48592.1
-421.527
-48482.2
-439.128
-48368.1
-456.558
-48249.6
-473.815
-48126.8
-490.899
-47999.8
-507.81
-47868.7
-524.546
-47733.4
-541.109
-47594
-557.497
-47450.6
-573.711
-47303.2
-589.749
-47151.8
-605.612
-46996.5
-621.3
-46837.4
-636.813
-46674.4
-652.15
-46507.6
-667.312
-46337.1
-682.299
-46162.9
-697.111
-45985.1
-711.749
-45803.6
-726.211
-45618.6
-740.5
-45430.1
-754.615
-45238.1
-768.556
-45042.6
-782.325
-44843.8
-795.921
-44641.6
-809.345
-44436.1
-822.597
-44227.4
-835.679
-44015.4
-848.591
-43800.3
-861.334
-43582
-873.907
-43360.7
-886.313
-43136.2
-898.551
-42908.8
-910.624
-42678.4
-922.53
-42445.1
-934.272
-42208.9
-945.851
-41969.8
-957.266
-41728
-968.52
-41483.4
-979.613
-41236
-990.546
-40986
-1001.32
-40733.3
-1011.94
-40478.1
-1022.4
-40220.2
-1032.7
-39959.9
-1042.85
-39697
-1052.85
-39431.7
-1062.7
-39164
-1072.39
-38893.9
-1081.94
-38621.4
-1091.33
-38346.7
-1100.58
-38069.6
-1109.69
-37790.4
-1118.65
-37509
-1127.46
-37225.4
-1136.13
-36939.6
-1144.67
-36651.8
-1153.06
-36361.9
-1161.32
-36070.1
-1169.43
-35776.2
-1177.42
-35480.4
-1185.27
-35182.6
-1192.98
-34883
-1200.57
-34581.5
-1208.02
-34278.2
-1215.35
-33973
-1222.55
-33666.2
-1229.62
-33357.6
-1236.57
-33047.3
-1243.39
-32735.3
-1250.1
-32421.7
-1256.68
-32106.5
-1263.14
-31789.7
-1269.49
-31471.4
-1275.72
-31151.6
-1281.83
-30830.2
-1287.83
-30507.4
-1293.72
-30183.2
-1299.49
-29857.5
-1305.16
-29530.5
-1310.72
-29202.1
-1316.17
-28872.4
-1321.52
-28541.4
-1326.76
-28209.1
-1331.9
-27875.5
-1336.93
-27540.7
-1341.87
-27204.8
-1346.71
-26867.6
-1351.45
-26529.3
-1356.09
-26189.9
-1360.64
-25849.3
-1365.09
-25507.7
-1369.45
-25165
-1373.72
-24821.3
-1377.9
-24476.5
-1381.99
-24130.8
-1385.99
-23784.1
-1389.9
-23436.4
-1393.73
-23087.8
-1397.47
-22738.4
-1401.13
-22388
-1404.71
-22036.7
-1408.21
-21684.6
-1411.63
-21331.7
-1414.97
-20978
-1418.23
-20623.4
-1421.41
-20268.1
-1424.52
-19912.1
-1427.55
-19555.3
-1430.51
-19197.8
-1433.39
-18839.6
-1436.21
-18480.7
-1438.95
-18121.2
-1441.63
-17761
-1444.23
-17400.2
-1446.77
-17038.8
-1449.24
-16676.8
-1451.64
-16314.1
-1453.98
-15951
-1456.25
-15587.3
-1458.47
-15223
-1460.61
-14858.3
-1462.7
-14493
-1464.72
-14127.2
-1466.69
-13761
-1468.59
-13394.3
-1470.43
-13027.2
-1472.22
-12659.7
-1473.95
-12291.7
-1475.62
-11923.3
-1477.24
-11554.6
-1478.8
-11185.5
-1480.3
-10816
-1481.75
-10446.1
-1483.15
-10076
-1484.49
-9705.5
-1485.79
-9334.71
-1487.03
-8963.62
-1488.21
-8592.26
-1489.35
-8220.62
-1490.44
-7848.73
-1491.48
-7476.59
-1492.47
-7104.22
-1493.41
-6731.63
-1494.31
-6358.83
-1495.15
-5985.83
-1495.95
-5612.64
-1496.71
-5239.28
-1497.42
-4865.75
-1498.08
-4492.07
-1498.7
-4118.25
-1499.28
-3744.3
-1499.81
-3370.22
-1500.29
-2996.04
-1500.73
-2621.76
-1501.13
-2247.39
-1501.48
-1872.95
-1501.79
-1498.44
-1502.05
-1123.88
-1502.26
-749.275
-1502.42
-374.646
-1502.53
-1502.59
-893.462
4712.67
-1767.65
4591.39
-2606.49
4361.82
-3399.49
4066.05
-4142.66
3751.24
-4838.05
3457.84
-5492
3212.66
-6113.05
3027.15
-6710.09
2900.07
-7290.99
2822.28
-7861.98
2781.38
-8427.53
2765.23
-8990.54
2763.83
-9552.7
2769.94
-10114.9
2778.85
-10677.4
2787.81
-11240.4
2795.39
-11803.5
2800.99
-12366.7
2804.48
-12929.5
2805.92
-13491.9
2805.48
-14053.5
2803.34
-14614.1
2799.69
-15173.5
2794.69
-15731.4
2788.46
-16287.7
2781.12
-16842.3
2772.77
-17394.9
2763.49
-17945.3
2753.34
-18493.5
2742.4
-19039.3
2730.71
-19582.6
2718.31
-20123.3
2705.24
-20661.1
2691.53
-21196
2677.22
-21728
2662.33
-22256.8
2646.88
-22782.4
2630.9
-23304.7
2614.41
-23823.6
2597.41
-24339
2579.93
-24850.7
2561.99
-25358.8
2543.59
-25863.1
2524.76
-26363.6
2505.49
-26860.1
2485.81
-27352.5
2465.72
-27840.9
2445.24
-28325.1
2424.37
-28805
2403.13
-29280.6
2381.53
-29751.8
2359.56
-30218.6
2337.25
-30680.8
2314.6
-31138.4
2291.62
-31591.3
2268.32
-32039.6
2244.7
-32483
2220.78
-32921.6
2196.56
-33355.3
2172.06
-33784
2147.27
-34207.8
2122.21
-34626.4
2096.88
-35040
2071.3
-35448.3
2045.46
-35851.5
2019.39
-36249.4
1993.08
-36642
1966.54
-37029.2
1939.78
-37411.1
1912.81
-37787.5
1885.64
-38158.4
1858.27
-38523.9
1830.71
-38883.8
1802.97
-39238.1
1775.05
-39586.8
1746.97
-39929.8
1718.73
-40267.2
1690.33
-40598.9
1661.79
-40924.8
1633.11
-41245
1604.3
-41559.3
1575.37
-41867.9
1546.32
-42170.7
1517.17
-42467.6
1487.91
-42758.6
1458.56
-43043.8
1429.11
-43323
1399.59
-43596.4
1370
-43863.8
1340.33
-44125.3
1310.61
-44380.8
1280.83
-44630.3
1251.01
-44873.9
1221.15
-45111.6
1191.25
-45343.2
1161.32
-45568.8
1131.38
-45788.5
1101.42
-46002.2
1071.46
-46209.9
1041.49
-46411.6
1011.53
-46607.3
981.576
-46797
951.642
-46980.8
921.731
-47158.6
891.849
-47330.4
862.002
-47496.3
832.196
-47656.2
802.436
-47810.2
772.728
-47958.3
743.078
-48100.4
713.49
-48236.7
683.972
-48367.1
654.526
-48491.6
625.16
-48610.2
595.878
-48723.1
566.684
-48830.1
537.585
-48931.3
508.584
-49026.8
479.686
-49116.5
450.897
-49200.5
422.22
-49278.7
393.66
-49351.3
365.222
-49418.3
336.909
-49479.6
308.727
-49535.3
280.678
-49585.4
252.767
-49630
224.997
-49669.1
197.374
-49702.7
169.899
-49730.8
142.577
-49753.5
115.412
-49770.8
88.4055
-49782.8
61.5623
-49789.4
34.8852
-49790.7
8.37717
-49786.8
-17.9587
-49777.7
-44.1197
-49763.3
-70.1028
-49743.8
-95.9055
-49719.2
-121.525
-49689.6
-146.959
-49654.8
-172.205
-49615.1
-197.261
-49570.5
-222.125
-49520.9
-246.794
-49466.4
-271.266
-49407
-295.54
-49342.9
-319.614
-49274
-343.485
-49200.4
-367.153
-49122.1
-390.616
-49039.1
-413.872
-48951.6
-436.92
-48859.5
-459.758
-48762.9
-482.386
-48661.8
-504.802
-48556.2
-527.005
-48446.3
-548.995
-48332.1
-570.77
-48213.5
-592.33
-48090.7
-613.673
-47963.7
-634.8
-47832.5
-655.71
-47697.2
-676.401
-47557.8
-696.875
-47414.3
-717.13
-47266.9
-737.167
-47115.5
-756.984
-46960.2
-776.582
-46801
-795.962
-46638
-815.122
-46471.3
-834.063
-46300.8
-852.785
-46126.6
-871.289
-45948.8
-889.574
-45767.3
-907.641
-45582.3
-925.491
-45393.8
-943.123
-45201.8
-960.539
-45006.4
-977.738
-44807.6
-994.722
-44605.5
-1011.49
-44400.1
-1028.05
-44191.4
-1044.39
-43979.5
-1060.52
-43764.4
-1076.43
-43546.2
-1092.14
-43324.9
-1107.64
-43100.5
-1122.92
-42873.2
-1138
-42642.9
-1152.88
-42409.7
-1167.54
-42173.5
-1182
-41934.6
-1196.26
-41692.8
-1210.32
-41448.3
-1224.18
-41201.1
-1237.83
-40951.2
-1251.29
-40698.6
-1264.55
-40443.5
-1277.62
-40185.8
-1290.49
-39925.5
-1303.17
-39662.8
-1315.65
-39397.6
-1327.95
-39130
-1340.06
-38860.1
-1351.98
-38587.8
-1363.72
-38313.2
-1375.27
-38036.3
-1386.64
-37757.2
-1397.83
-37476
-1408.84
-37192.5
-1419.67
-36907
-1430.33
-36619.3
-1440.81
-36329.7
-1451.13
-36038
-1461.26
-35744.3
-1471.23
-35448.6
-1481.04
-35151.1
-1490.67
-34851.6
-1500.15
-34550.3
-1509.46
-34247.2
-1518.61
-33942.3
-1527.6
-33635.7
-1536.43
-33327.3
-1545.11
-33017.2
-1553.63
-32705.5
-1562
-32392.1
-1570.22
-32077.1
-1578.29
-31760.6
-1586.22
-31442.5
-1593.99
-31122.9
-1601.63
-30801.8
-1609.12
-30479.2
-1616.48
-30155.2
-1623.69
-29829.8
-1630.77
-29503
-1637.71
-29174.9
-1644.52
-28845.5
-1651.19
-28514.7
-1657.74
-28182.7
-1664.15
-27849.4
-1670.44
-27514.9
-1676.61
-27179.2
-1682.65
-26842.3
-1688.57
-26504.3
-1694.36
-26165.1
-1700.04
-25824.9
-1705.6
-25483.5
-1711.05
-25141.1
-1716.38
-24797.7
-1721.59
-24453.2
-1726.7
-24107.8
-1731.7
-23761.4
-1736.58
-23414
-1741.36
-23065.8
-1746.04
-22716.6
-1750.61
-22366.5
-1755.08
-22015.6
-1759.44
-21663.8
-1763.71
-21311.2
-1767.88
-20957.7
-1771.95
-20603.5
-1775.92
-20248.6
-1779.8
-19892.8
-1783.59
-19536.4
-1787.29
-19179.2
-1790.89
-18821.3
-1794.4
-18462.8
-1797.83
-18103.6
-1801.17
-17743.7
-1804.42
-17383.3
-1807.59
-17022.2
-1810.67
-16660.5
-1813.67
-16298.2
-1816.59
-15935.4
-1819.43
-15572
-1822.19
-15208.1
-1824.87
-14843.7
-1827.48
-14478.8
-1830
-14113.4
-1832.45
-13747.5
-1834.83
-13381.2
-1837.13
-13014.4
-1839.36
-12647.2
-1841.52
-12279.6
-1843.61
-11911.6
-1845.63
-11543.2
-1847.57
-11174.4
-1849.45
-10805.3
-1851.26
-10435.8
-1853.01
-10066
-1854.69
-9695.9
-1856.3
-9325.47
-1857.85
-8954.75
-1859.33
-8583.75
-1860.75
-8212.48
-1862.11
-7840.95
-1863.41
-7469.18
-1864.64
-7097.17
-1865.82
-6724.95
-1866.94
-6352.51
-1867.99
-5979.88
-1868.99
-5607.07
-1869.94
-5234.07
-1870.82
-4860.92
-1871.65
-4487.61
-1872.42
-4114.16
-1873.14
-3740.57
-1873.8
-3366.87
-1874.41
-2993.06
-1874.96
-2619.15
-1875.46
-2245.15
-1875.9
-1871.08
-1876.28
-1496.94
-1876.6
-1122.76
-1876.86
-748.527
-1877.06
-374.271
-1877.2
-1877.28
-867.862
5580.52
-1719.04
5442.56
-2539.97
5182.75
-3321.53
4847.62
-4059.83
4489.57
-4756.02
4154.06
-5414.94
3871.61
-6043.54
3655.78
-6649.27
3505.84
-7238.95
3412
-7818.12
3360.59
-8390.89
3338.04
-8960.05
3333.03
-9527.34
3337.27
-10093.7
3345.28
-10659.7
3353.8
-11225.4
3361.1
-11790.7
3366.41
-12355.7
3369.46
-12920
3370.29
-13483.5
3369.06
-14046.1
3365.93
-14607.5
3361.09
-15167.4
3354.71
-15725.9
3346.93
-16282.6
3337.88
-16837.4
3327.65
-17390.3
3316.34
-17940.9
3304.03
-18489.2
3290.77
-19035.1
3276.64
-19578.4
3261.67
-20119.1
3245.91
-20656.9
3229.39
-21191.8
3212.16
-21723.7
3194.25
-22252.4
3175.67
-22777.9
3156.45
-23300.1
3136.62
-23818.8
3116.2
-24334.1
3095.2
-24845.7
3073.65
-25353.6
3051.55
-25857.7
3028.93
-26358
3005.79
-26854.3
2982.16
-27346.6
2958.04
-27834.7
2933.45
-28318.7
2908.4
-28798.4
2882.9
-29273.8
2856.96
-29744.8
2830.6
-30211.3
2803.82
-30673.3
2776.63
-31130.7
2749.05
-31583.4
2721.08
-32031.4
2692.74
-32474.6
2664.03
-32913
2634.97
-33346.4
2605.56
-33774.9
2575.81
-34198.4
2545.73
-34616.8
2515.34
-35030.1
2484.64
-35438.2
2453.63
-35841.1
2422.34
-36238.8
2390.77
-36631.1
2358.92
-37018.1
2326.81
-37399.7
2294.45
-37775.8
2261.84
-38146.5
2229
-38511.6
2195.93
-38871.3
2162.64
-39225.3
2129.14
-39573.7
2095.45
-39916.5
2061.56
-40253.6
2027.48
-40585
1993.24
-40910.7
1958.83
-41230.6
1924.26
-41544.7
1889.55
-41853
1854.69
-42155.5
1819.71
-42452.1
1784.6
-42742.9
1749.38
-43027.7
1714.05
-43306.7
1678.63
-43579.8
1643.12
-43846.9