/*--------------------------------*- C++ -*----------------------------------*\
| =========                 |                                                 |
| \\      /  F ield         | OpenFOAM: The Open Source CFD Toolbox           |
|  \\    /   O peration     | Version:  2212                                  |
|   \\  /    A nd           | Website:  www.openfoam.com                      |
|    \\/     M anipulation  |                                                 |
\*---------------------------------------------------------------------------*/
FoamFile
{
    version     2.0;
    format      ascii;
    arch        "LSB;label=32;scalar=64";
    class       volScalarField;
    location    "70";
    object      p_rgh;
}
// * * * * * * * * * * * * * * * * * * * * * * * * * * * * * * * * * * * * * //

dimensions      [1 -1 -2 0 0 0 0];

internalField   nonuniform List<scalar> 
204800
(
-12.7789
-12.7725
-12.7584
-12.7375
-12.7093
-12.6742
-12.6319
-12.5826
-12.5262
-12.4629
-12.3927
-12.3157
-12.2318
-12.1412
-12.0439
-11.9401
-11.8297
-11.7129
-11.5897
-11.4601
-11.3244
-11.1824
-11.0345
-10.8806
-10.7209
-10.5555
-10.3845
-10.2079
-10.026
-9.83876
-9.64635
-9.44887
-9.24645
-9.0392
-8.82723
-8.61066
-8.38959
-8.16416
-7.93448
-7.70065
-7.46281
-7.22106
-6.97553
-6.72634
-6.4736
-6.21744
-5.95797
-5.69532
-5.42959
-5.16093
-4.88943
-4.61522
-4.33843
-4.05916
-3.77753
-3.49367
-3.20768
-2.91968
-2.62979
-2.33811
-2.04477
-1.74987
-1.45351
-1.15582
-0.856892
-0.556836
-0.255755
0.0462473
0.34907
0.652612
0.956777
1.26147
1.56659
1.87205
2.17776
2.48362
2.78956
3.09548
3.40131
3.70695
4.01233
4.31738
4.62202
4.92617
5.22976
5.53272
5.83499
6.13651
6.43719
6.737
7.03585
7.33371
7.63051
7.9262
8.22073
8.51404
8.8061
9.09685
9.38625
9.67426
9.96084
10.2459
10.5295
10.8116
11.0921
11.3709
11.6482
11.9237
12.1976
12.4698
12.7402
13.0088
13.2756
13.5407
13.8039
14.0653
14.3248
14.5824
14.8381
15.0919
15.3439
15.5938
15.8419
16.088
16.3322
16.5744
16.8146
17.0529
17.2892
17.5235
17.7558
17.9862
18.2145
18.4409
18.6653
18.8878
19.1082
19.3267
19.5432
19.7577
19.9703
20.1809
20.3895
20.5962
20.801
21.0038
21.2047
21.4036
21.6006
21.7957
21.9889
22.1802
22.3697
22.5572
22.7429
22.9267
23.1086
23.2887
23.467
23.6435
23.8181
23.991
24.1621
24.3313
24.4988
24.6646
24.8286
24.9909
25.1514
25.3102
25.4674
25.6228
25.7766
25.9287
26.0791
26.2279
26.3751
26.5206
26.6646
26.8069
26.9477
27.0868
27.2245
27.3605
27.4951
27.6281
27.7595
27.8895
28.018
28.145
28.2706
28.3947
28.5173
28.6385
28.7583
28.8767
28.9936
29.1092
29.2234
29.3362
29.4477
29.5578
29.6666
29.7741
29.8802
29.9851
30.0886
30.1909
30.2919
30.3916
30.4901
30.5873
30.6833
30.7781
30.8717
30.964
31.0552
31.1452
31.234
31.3216
31.4081
31.4934
31.5776
31.6607
31.7426
31.8234
31.9031
31.9818
32.0593
32.1357
32.2111
32.2854
32.3587
32.4309
32.5021
32.5722
32.6413
32.7094
32.7765
32.8426
32.9076
32.9717
33.0348
33.097
33.1581
33.2183
33.2776
33.3358
33.3932
33.4496
33.5051
33.5596
33.6133
33.666
33.7178
33.7687
33.8187
33.8678
33.9161
33.9634
34.0099
34.0555
34.1002
34.1441
34.1871
34.2293
34.2706
34.3111
34.3507
34.3895
34.4275
34.4647
34.501
34.5365
34.5712
34.6051
34.6382
34.6705
34.702
34.7327
34.7626
34.7917
34.82
34.8475
34.8743
34.9003
34.9255
34.9499
34.9736
34.9965
35.0187
35.0401
35.0607
35.0805
35.0997
35.118
35.1356
35.1525
35.1686
35.184
35.1986
35.2125
35.2256
35.2381
35.2497
35.2607
35.2709
35.2803
35.2891
35.2971
35.3044
35.3109
35.3167
35.3218
35.3262
35.3298
35.3327
35.3349
35.3363
35.3371
-12.7316
-12.7249
-12.7111
-12.6905
-12.6628
-12.6283
-12.5868
-12.5384
-12.4832
-12.4211
-12.3522
-12.2766
-12.1943
-12.1053
-12.0097
-11.9075
-11.7987
-11.6835
-11.5618
-11.4338
-11.2995
-11.159
-11.0124
-10.8597
-10.7012
-10.5368
-10.3667
-10.1911
-10.0099
-9.82342
-9.63166
-9.43477
-9.23289
-9.02612
-8.8146
-8.59845
-8.37778
-8.15272
-7.9234
-7.68993
-7.45244
-7.21105
-6.96587
-6.71703
-6.46466
-6.20886
-5.94976
-5.68748
-5.42215
-5.15387
-4.88277
-4.60897
-4.33258
-4.05373
-3.77253
-3.4891
-3.20355
-2.91599
-2.62655
-2.33533
-2.04244
-1.748
-1.45212
-1.1549
-0.856445
-0.55687
-0.256275
0.0452373
0.347566
0.650611
0.954275
1.25846
1.56308
1.86803
2.17322
2.47857
2.78399
3.08939
3.3947
3.69982
4.00468
4.3092
4.6133
4.91692
5.21999
5.52242
5.82416
6.12514
6.42529
6.72456
7.02289
7.32021
7.61648
7.91163
8.20563
8.49841
8.78993
9.08015
9.36903
9.65651
9.94255
10.2271
10.5102
10.7917
11.0717
11.35
11.6268
11.9018
12.1752
12.4468
12.7167
12.9848
13.2511
13.5157
13.7784
14.0393
14.2983
14.5554
14.8106
15.064
15.3154
15.5649
15.8125
16.0581
16.3018
16.5435
16.7833
17.0211
17.2569
17.4908
17.7226
17.9525
18.1805
18.4064
18.6304
18.8524
19.0724
19.2904
19.5065
19.7206
19.9328
20.1429
20.3512
20.5574
20.7618
20.9642
21.1646
21.3632
21.5598
21.7545
21.9473
22.1383
22.3273
22.5145
22.6998
22.8832
23.0648
23.2445
23.4225
23.5986
23.7729
23.9453
24.1161
24.285
24.4522
24.6176
24.7812
24.9432
25.1034
25.2619
25.4187
25.5738
25.7273
25.8791
26.0292
26.1777
26.3246
26.4698
26.6134
26.7555
26.896
27.0349
27.1722
27.308
27.4422
27.575
27.7062
27.8359
27.9641
28.0909
28.2162
28.34
28.4624
28.5833
28.7029
28.821
28.9377
29.0531
29.167
29.2796
29.3909
29.5008
29.6093
29.7166
29.8225
29.9271
30.0305
30.1325
30.2333
30.3328
30.4311
30.5281
30.6239
30.7185
30.8119
30.904
30.995
31.0848
31.1734
31.2609
31.3472
31.4323
31.5163
31.5992
31.681
31.7616
31.8412
31.9197
31.997
32.0733
32.1485
32.2227
32.2958
32.3679
32.4389
32.5089
32.5778
32.6458
32.7127
32.7787
32.8436
32.9076
32.9705
33.0325
33.0936
33.1536
33.2127
33.2709
33.3281
33.3844
33.4398
33.4942
33.5477
33.6004
33.6521
33.7029
33.7528
33.8018
33.8499
33.8972
33.9435
33.9891
34.0337
34.0775
34.1204
34.1625
34.2037
34.2441
34.2837
34.3224
34.3603
34.3974
34.4337
34.4691
34.5037
34.5376
34.5706
34.6028
34.6342
34.6648
34.6947
34.7237
34.752
34.7795
34.8062
34.8321
34.8573
34.8817
34.9053
34.9281
34.9502
34.9716
34.9921
35.012
35.031
35.0494
35.0669
35.0838
35.0999
35.1152
35.1298
35.1437
35.1568
35.1692
35.1808
35.1917
35.2019
35.2114
35.2201
35.2281
35.2353
35.2419
35.2477
35.2527
35.2571
35.2607
35.2636
35.2658
35.2672
35.268
-12.7302
-12.7235
-12.7098
-12.6892
-12.6617
-12.6273
-12.586
-12.5378
-12.4828
-12.421
-12.3524
-12.2772
-12.1952
-12.1066
-12.0113
-11.9095
-11.8012
-11.6864
-11.5651
-11.4375
-11.3037
-11.1636
-11.0173
-10.8651
-10.7069
-10.5428
-10.373
-10.1976
-10.0166
-9.83022
-9.63856
-9.44173
-9.23986
-9.03307
-8.82149
-8.60525
-8.38447
-8.15928
-7.9298
-7.69617
-7.4585
-7.21692
-6.97155
-6.72252
-6.46995
-6.21396
-5.95468
-5.69221
-5.42669
-5.15823
-4.88695
-4.61298
-4.33642
-4.05741
-3.77604
-3.49245
-3.20675
-2.91905
-2.62946
-2.3381
-2.04508
-1.75051
-1.4545
-1.15716
-0.858596
-0.558911
-0.25821
0.043403
0.345828
0.648965
0.952716
1.25699
1.56168
1.8667
2.17197
2.47738
2.78286
3.08832
3.39367
3.69883
4.00374
4.30829
4.61243
4.91608
5.21917
5.52162
5.82338
6.12437
6.42453
6.72381
7.02213
7.31946
7.61572
7.91086
8.20484
8.49761
8.78912
9.07931
9.36816
9.65561
9.94163
10.2262
10.5092
10.7907
11.0706
11.3489
11.6256
11.9006
12.1739
12.4455
12.7153
12.9834
13.2496
13.5141
13.7768
14.0376
14.2965
14.5536
14.8087
15.062
15.3134
15.5628
15.8103
16.0558
16.2994
16.5411
16.7808
17.0185
17.2542
17.488
17.7198
17.9496
18.1775
18.4033
18.6272
18.8491
19.0691
19.287
19.503
19.717
19.9291
20.1392
20.3473
20.5535
20.7577
20.9601
21.1604
21.3589
21.5554
21.7501
21.9428
22.1336
22.3226
22.5096
22.6948
22.8782
23.0597
23.2394
23.4172
23.5932
23.7674
23.9398
24.1105
24.2793
24.4464
24.6117
24.7753
24.9372
25.0973
25.2557
25.4125
25.5675
25.7209
25.8726
26.0226
26.1711
26.3178
26.463
26.6066
26.7485
26.8889
27.0278
27.165
27.3007
27.4349
27.5676
27.6987
27.8284
27.9565
28.0832
28.2084
28.3322
28.4545
28.5754
28.6949
28.8129
28.9296
29.0448
29.1587
29.2713
29.3825
29.4923
29.6008
29.708
29.8138
29.9184
30.0217
30.1237
30.2244
30.3239
30.4221
30.5191
30.6148
30.7094
30.8027
30.8948
30.9857
31.0754
31.164
31.2514
31.3377
31.4228
31.5067
31.5896
31.6713
31.7519
31.8314
31.9098
31.9871
32.0634
32.1386
32.2127
32.2857
32.3578
32.4287
32.4987
32.5676
32.6355
32.7024
32.7683
32.8332
32.8971
32.9601
33.022
33.083
33.1431
33.2021
33.2603
33.3175
33.3737
33.4291
33.4835
33.537
33.5895
33.6412
33.692
33.7418
33.7908
33.8389
33.8862
33.9325
33.978
34.0226
34.0664
34.1093
34.1513
34.1926
34.2329
34.2725
34.3112
34.3491
34.3861
34.4223
34.4578
34.4924
34.5262
34.5592
34.5914
34.6228
34.6534
34.6832
34.7122
34.7405
34.768
34.7946
34.8206
34.8457
34.8701
34.8937
34.9165
34.9386
34.9599
34.9805
35.0003
35.0194
35.0377
35.0553
35.0721
35.0882
35.1035
35.1181
35.1319
35.145
35.1574
35.1691
35.18
35.1901
35.1996
35.2083
35.2163
35.2235
35.2301
35.2359
35.2409
35.2453
35.2489
35.2518
35.254
35.2554
35.2562
-12.693
-12.6863
-12.6728
-12.6526
-12.6255
-12.5917
-12.5511
-12.5038
-12.4498
-12.3891
-12.3218
-12.2478
-12.1672
-12.0801
-11.9864
-11.8862
-11.7794
-11.6662
-11.5466
-11.4206
-11.2883
-11.1498
-11.0051
-10.8543
-10.6975
-10.5347
-10.3661
-10.1918
-10.0119
-9.82641
-9.63556
-9.43944
-9.23817
-9.03189
-8.82074
-8.60483
-8.38432
-8.15934
-7.93002
-7.69651
-7.45892
-7.2174
-6.97207
-6.72307
-6.47052
-6.21455
-5.95529
-5.69284
-5.42735
-5.15893
-4.88769
-4.61377
-4.33727
-4.05832
-3.77703
-3.49353
-3.20792
-2.92032
-2.63085
-2.33961
-2.04672
-1.75229
-1.45643
-1.15924
-0.860839
-0.561325
-0.260804
0.0406211
0.34285
0.645784
0.949324
1.25337
1.55784
1.86263
2.16765
2.47282
2.77805
3.08324
3.38833
3.69322
3.99784
4.30211
4.60596
4.90931
5.2121
5.51424
5.81568
6.11636
6.41619
6.71514
7.01313
7.31012
7.60604
7.90084
8.19447
8.48689
8.77804
9.06787
9.35636
9.64344
9.92909
10.2133
10.4959
10.777
11.0566
11.3345
11.6108
11.8854
12.1583
12.4295
12.699
12.9666
13.2325
13.4966
13.7589
14.0193
14.2778
14.5345
14.7893
15.0422
15.2931
15.5422
15.7893
16.0344
16.2776
16.5189
16.7582
16.9955
17.2309
17.4643
17.6957
17.9251
18.1526
18.3781
18.6016
18.8231
19.0427
19.2603
19.4759
19.6895
19.9012
20.1109
20.3187
20.5245
20.7284
20.9304
21.1304
21.3285
21.5247
21.719
21.9113
22.1018
22.2904
22.4772
22.662
22.845
23.0262
23.2056
23.3831
23.5588
23.7326
23.9047
24.075
24.2436
24.4103
24.5754
24.7386
24.9002
25.06
25.2182
25.3746
25.5293
25.6824
25.8338
25.9836
26.1317
26.2782
26.4231
26.5664
26.7081
26.8482
26.9868
27.1238
27.2592
27.3931
27.5255
27.6564
27.7858
27.9137
28.0402
28.1651
28.2887
28.4107
28.5314
28.6506
28.7685
28.8849
28.9999
29.1136
29.2259
29.3369
29.4465
29.5548
29.6618
29.7674
29.8718
29.9749
30.0767
30.1772
30.2765
30.3745
30.4713
30.5668
30.6612
30.7543
30.8462
30.937
31.0265
31.1149
31.2021
31.2882
31.3731
31.4569
31.5396
31.6212
31.7016
31.781
31.8592
31.9364
32.0125
32.0875
32.1615
32.2344
32.3063
32.3771
32.4469
32.5157
32.5835
32.6502
32.716
32.7808
32.8446
32.9074
32.9692
33.0301
33.09
33.149
33.207
33.2641
33.3202
33.3754
33.4297
33.4831
33.5356
33.5871
33.6378
33.6876
33.7365
33.7845
33.8316
33.8779
33.9233
33.9678
34.0115
34.0543
34.0963
34.1374
34.1777
34.2171
34.2558
34.2936
34.3306
34.3667
34.4021
34.4366
34.4703
34.5033
34.5354
34.5667
34.5973
34.6271
34.656
34.6842
34.7116
34.7383
34.7641
34.7892
34.8135
34.8371
34.8599
34.8819
34.9032
34.9238
34.9435
34.9626
34.9808
34.9984
35.0151
35.0312
35.0465
35.061
35.0749
35.088
35.1003
35.1119
35.1228
35.133
35.1424
35.1511
35.1591
35.1663
35.1728
35.1786
35.1837
35.188
35.1916
35.1945
35.1967
35.1981
35.1989
-12.6823
-12.6757
-12.6623
-12.6422
-12.6153
-12.5818
-12.5416
-12.4946
-12.4411
-12.3809
-12.3142
-12.2408
-12.1609
-12.0745
-11.9816
-11.8822
-11.7764
-11.6641
-11.5455
-11.4205
-11.2893
-11.1518
-11.0082
-10.8584
-10.7027
-10.541
-10.3734
-10.2
-10.021
-9.83634
-9.64622
-9.45074
-9.25001
-9.04416
-8.83333
-8.61765
-8.39726
-8.17231
-7.94293
-7.70928
-7.4715
-7.22973
-6.98411
-6.73478
-6.48188
-6.22554
-5.96588
-5.70305
-5.43717
-5.16835
-4.89673
-4.62242
-4.34555
-4.06623
-3.78459
-3.50073
-3.21478
-2.92684
-2.63704
-2.34549
-2.05229
-1.75756
-1.4614
-1.16394
-0.865263
-0.565487
-0.264712
0.0369582
0.339423
0.642583
0.94634
1.2506
1.55526
1.86024
2.16545
2.47078
2.77617
3.08152
3.38675
3.69177
3.99652
4.30091
4.60487
4.90832
5.2112
5.51343
5.81494
6.11568
6.41558
6.71458
7.01262
7.30964
7.60559
7.90041
8.19406
8.48649
8.77764
9.06747
9.35594
9.64301
9.92864
10.2128
10.4954
10.7765
11.056
11.3339
11.6101
11.8846
12.1575
12.4286
12.698
12.9656
13.2314
13.4954
13.7576
14.0179
14.2763
14.5329
14.7876
15.0403
15.2912
15.5401
15.7871
16.0322
16.2753
16.5164
16.7556
16.9928
17.228
17.4613
17.6926
17.9219
18.1492
18.3745
18.5979
18.8193
19.0387
19.2561
19.4716
19.6851
19.8967
20.1062
20.3139
20.5195
20.7233
20.9251
21.125
21.3229
21.519
21.7131
21.9053
22.0957
22.2841
22.4707
22.6554
22.8383
23.0193
23.1985
23.3759
23.5514
23.7252
23.8971
24.0673
24.2357
24.4023
24.5672
24.7303
24.8917
25.0514
25.2094
25.3657
25.5203
25.6732
25.8245
25.9741
26.1221
26.2685
26.4133
26.5564
26.698
26.838
26.9764
27.1133
27.2486
27.3824
27.5147
27.6454
27.7747
27.9025
28.0288
28.1536
28.277
28.399
28.5195
28.6387
28.7564
28.8727
28.9876
29.1012
29.2134
29.3242
29.4337
29.5419
29.6488
29.7543
29.8586
29.9616
30.0633
30.1637
30.2629
30.3608
30.4575
30.5529
30.6472
30.7402
30.8321
30.9227
31.0122
31.1005
31.1876
31.2736
31.3585
31.4422
31.5248
31.6062
31.6866
31.7659
31.844
31.9211
31.9971
32.0721
32.146
32.2188
32.2906
32.3614
32.4311
32.4998
32.5675
32.6342
32.6999
32.7646
32.8284
32.8911
32.9529
33.0137
33.0736
33.1325
33.1904
33.2474
33.3035
33.3587
33.4129
33.4662
33.5187
33.5702
33.6208
33.6705
33.7194
33.7673
33.8144
33.8606
33.9059
33.9504
33.9941
34.0368
34.0788
34.1199
34.1601
34.1995
34.2381
34.2759
34.3128
34.3489
34.3843
34.4188
34.4525
34.4854
34.5175
34.5488
34.5793
34.609
34.6379
34.6661
34.6935
34.7201
34.7459
34.771
34.7953
34.8188
34.8416
34.8636
34.8849
34.9054
34.9252
34.9442
34.9624
34.9799
34.9967
35.0127
35.028
35.0425
35.0564
35.0694
35.0818
35.0934
35.1043
35.1144
35.1238
35.1325
35.1405
35.1477
35.1542
35.16
35.165
35.1694
35.173
35.1759
35.1781
35.1795
35.1802
-12.6448
-12.6382
-12.625
-12.6052
-12.5788
-12.5458
-12.5063
-12.4602
-12.4075
-12.3484
-12.2828
-12.2107
-12.1321
-12.0471
-11.9557
-11.8578
-11.7536
-11.643
-11.5261
-11.4029
-11.2735
-11.1379
-10.9961
-10.8482
-10.6943
-10.5344
-10.3686
-10.197
-10.0196
-9.83651
-9.64787
-9.45375
-9.25427
-9.04953
-8.83967
-8.62482
-8.40511
-8.1807
-7.95174
-7.71837
-7.48075
-7.23905
-6.99341
-6.74399
-6.49094
-6.2344
-5.97453
-5.71145
-5.4453
-5.17622
-4.90433
-4.62975
-4.35262
-4.07305
-3.79116
-3.50708
-3.2209
-2.93276
-2.64277
-2.35103
-2.05766
-1.76277
-1.46648
-1.16888
-0.870081
-0.570196
-0.269324
0.0324306
0.334968
0.638188
0.941994
1.24629
1.55098
1.85597
2.16118
2.4665
2.77187
3.07718
3.38237
3.68734
3.99202
4.29634
4.60021
4.90357
5.20633
5.50845
5.80984
6.11044
6.4102
6.70904
7.00692
7.30377
7.59954
7.89418
8.18763
8.47986
8.7708
9.06041
9.34866
9.6355
9.92089
10.2048
10.4872
10.768
11.0472
11.3248
11.6008
11.8751
12.1476
12.4185
12.6876
12.9549
13.2204
13.4841
13.746
14.006
14.2641
14.5204
14.7747
15.0272
15.2777
15.5263
15.773
16.0177
16.2605
16.5013
16.7401
16.977
17.2119
17.4448
17.6758
17.9047
18.1317
18.3567
18.5798
18.8008
19.0199
19.237
19.4521
19.6653
19.8765
20.0858
20.2931
20.4984
20.7018
20.9033
21.1028
21.3005
21.4962
21.69
21.8819
22.0719
22.26
22.4463
22.6307
22.8133
22.994
23.1728
23.3499
23.5251
23.6986
23.8702
24.0401
24.2081
24.3745
24.539
24.7019
24.863
25.0224
25.1801
25.3361
25.4904
25.6431
25.7941
25.9434
26.0911
26.2372
26.3817
26.5246
26.6659
26.8056
26.9438
27.0804
27.2155
27.349
27.481
27.6115
27.7406
27.8681
27.9942
28.1188
28.2419
28.3637
28.484
28.6029
28.7203
28.8364
28.9511
29.0645
29.1765
29.2871
29.3964
29.5044
29.611
29.7164
29.8204
29.9232
30.0247
30.1249
30.2239
30.3216
30.4181
30.5134
30.6074
30.7003
30.7919
30.8824
30.9717
31.0598
31.1468
31.2326
31.3173
31.4008
31.4832
31.5645
31.6447
31.7239
31.8019
31.8788
31.9547
32.0295
32.1032
32.1759
32.2476
32.3182
32.3878
32.4564
32.5239
32.5905
32.656
32.7206
32.7842
32.8468
32.9085
32.9692
33.0289
33.0877
33.1455
33.2024
33.2584
33.3135
33.3676
33.4208
33.4731
33.5245
33.575
33.6247
33.6734
33.7213
33.7682
33.8144
33.8596
33.904
33.9475
33.9902
34.0321
34.0731
34.1133
34.1526
34.1911
34.2288
34.2657
34.3017
34.3369
34.3714
34.405
34.4378
34.4699
34.5011
34.5316
34.5612
34.5901
34.6182
34.6456
34.6721
34.6979
34.7229
34.7472
34.7707
34.7934
34.8154
34.8366
34.857
34.8768
34.8957
34.9139
34.9314
34.9481
34.9641
34.9794
34.9939
35.0077
35.0207
35.033
35.0446
35.0555
35.0656
35.075
35.0837
35.0916
35.0988
35.1053
35.1111
35.1162
35.1205
35.1241
35.127
35.1291
35.1306
35.1313
-12.6224
-12.6159
-12.6028
-12.5832
-12.5571
-12.5245
-12.4853
-12.4397
-12.3876
-12.3291
-12.2642
-12.1929
-12.1151
-12.031
-11.9406
-11.8438
-11.7407
-11.6313
-11.5156
-11.3937
-11.2657
-11.1315
-10.9912
-10.8449
-10.6926
-10.5343
-10.3701
-10.2001
-10.0244
-9.84291
-9.65583
-9.4632
-9.26513
-9.0617
-8.85303
-8.63923
-8.42043
-8.19676
-7.96838
-7.73544
-7.49809
-7.2565
-7.01084
-6.76127
-6.50796
-6.25108
-5.99079
-5.72723
-5.46056
-5.19093
-4.91847
-4.64332
-4.3656
-4.08545
-3.80299
-3.51834
-3.23161
-2.94293
-2.6524
-2.36015
-2.06628
-1.7709
-1.47412
-1.17605
-0.876805
-0.576481
-0.275184
0.0269816
0.329916
0.63352
0.937696
1.24235
1.54738
1.8527
2.15822
2.46385
2.7695
3.07509
3.38054
3.68576
3.99067
4.29521
4.59929
4.90284
5.20579
5.50807
5.80962
6.11037
6.41026
6.70923
7.00721
7.30416
7.60002
7.89474
8.18826
8.48054
8.77153
9.06118
9.34945
9.63631
9.92171
10.2056
10.488
10.7688
11.048
11.3256
11.6015
11.8757
12.1482
12.419
12.688
12.9552
13.2207
13.4843
13.746
14.006
14.264
14.5201
14.7744
15.0267
15.2771
15.5256
15.7721
16.0167
16.2593
16.5
16.7387
16.9754
17.2101
17.4429
17.6737
17.9025
18.1293
18.3541
18.577
18.7979
19.0168
19.2337
19.4486
19.6616
19.8726
20.0817
20.2888
20.494
20.6972
20.8985
21.0978
21.2953
21.4908
21.6844
21.8761
22.0659
22.2539
22.44
22.6242
22.8065
22.987
23.1657
23.3426
23.5176
23.6909
23.8623
24.032
24.1999
24.366
24.5304
24.693
24.854
25.0132
25.1707
25.3265
25.4807
25.6331
25.7839
25.9331
26.0806
26.2266
26.3709
26.5136
26.6547
26.7942
26.9322
27.0687
27.2036
27.3369
27.4688
27.5991
27.728
27.8554
27.9813
28.1057
28.2287
28.3503
28.4704
28.5891
28.7065
28.8224
28.937
29.0502
29.162
29.2725
29.3816
29.4895
29.596
29.7012
29.8051
29.9077
30.0091
30.1092
30.208
30.3056
30.402
30.4971
30.591
30.6837
30.7753
30.8656
30.9548
31.0428
31.1296
31.2153
31.2999
31.3833
31.4656
31.5468
31.6269
31.7059
31.7838
31.8607
31.9364
32.0111
32.0847
32.1573
32.2289
32.2994
32.3689
32.4374
32.5049
32.5713
32.6368
32.7013
32.7648
32.8273
32.8889
32.9495
33.0091
33.0678
33.1256
33.1824
33.2383
33.2933
33.3474
33.4005
33.4527
33.5041
33.5545
33.6041
33.6527
33.7005
33.7474
33.7935
33.8387
33.883
33.9265
33.9691
34.0109
34.0519
34.092
34.1312
34.1697
34.2073
34.2442
34.2802
34.3153
34.3497
34.3833
34.4161
34.4481
34.4793
34.5097
34.5393
34.5682
34.5962
34.6235
34.65
34.6758
34.7008
34.725
34.7484
34.7711
34.7931
34.8143
34.8347
34.8544
34.8733
34.8915
34.909
34.9257
34.9416
34.9569
34.9714
34.9851
34.9982
35.0105
35.022
35.0329
35.043
35.0524
35.061
35.069
35.0762
35.0826
35.0884
35.0935
35.0978
35.1014
35.1043
35.1064
35.1079
35.1086
-12.5802
-12.5738
-12.5609
-12.5416
-12.5159
-12.4838
-12.4453
-12.4004
-12.3492
-12.2916
-12.2277
-12.1575
-12.081
-11.9981
-11.9091
-11.8137
-11.7121
-11.6043
-11.4903
-11.3702
-11.2439
-11.1116
-10.9732
-10.8289
-10.6785
-10.5223
-10.3602
-10.1923
-10.0186
-9.83924
-9.65422
-9.46361
-9.26749
-9.06594
-8.85906
-8.64694
-8.42968
-8.20742
-7.98026
-7.74837
-7.51189
-7.27098
-7.02581
-6.77655
-6.52339
-6.26651
-6.00608
-5.74228
-5.47529
-5.20525
-4.93234
-4.65671
-4.37849
-4.09782
-3.81485
-3.52968
-3.24245
-2.95327
-2.66227
-2.36955
-2.07522
-1.77941
-1.48221
-1.18374
-0.88411
-0.583415
-0.281765
0.0207389
0.323995
0.627904
0.932368
1.23729
1.54258
1.84814
2.15388
2.45972
2.76556
3.07133
3.37693
3.6823
3.98734
4.29199
4.59617
4.89981
5.20283
5.50517
5.80676
6.10754
6.40745
6.70642
7.00439
7.30132
7.59714
7.89181
8.18527
8.47748
8.76838
9.05794
9.34611
9.63286
9.91813
10.2019
10.4841
10.7648
11.0438
11.3212
11.597
11.871
12.1433
12.4139
12.6827
12.9497
13.2149
13.4783
13.7398
13.9995
14.2573
14.5132
14.7672
15.0192
15.2694
15.5176
15.7638
16.0081
16.2505
16.4908
16.7292
16.9657
17.2001
17.4326
17.6631
17.8916
18.1181
18.3426
18.5652
18.7857
19.0043
19.2209
19.4356
19.6482
19.859
20.0677
20.2745
20.4793
20.6822
20.8832
21.0822
21.2794
21.4746
21.6679
21.8593
22.0488
22.2364
22.4222
22.6061
22.7881
22.9683
23.1467
23.3232
23.498
23.6709
23.842
24.0114
24.179
24.3448
24.5089
24.6713
24.8319
24.9908
25.1481
25.3036
25.4574
25.6096
25.7602
25.909
26.0563
26.2019
26.346
26.4884
26.6293
26.7685
26.9063
27.0424
27.1771
27.3102
27.4418
27.5719
27.7005
27.8276
27.9532
28.0774
28.2002
28.3215
28.4414
28.5599
28.677
28.7927
28.907
29.02
29.1316
29.2419
29.3508
29.4584
29.5647
29.6697
29.7734
29.8758
29.9769
30.0768
30.1755
30.2729
30.369
30.464
30.5577
30.6502
30.7416
30.8317
30.9207
31.0085
31.0952
31.1807
31.2651
31.3484
31.4305
31.5115
31.5915
31.6703
31.748
31.8247
31.9003
31.9748
32.0483
32.1208
32.1922
32.2625
32.3319
32.4002
32.4676
32.5339
32.5992
32.6636
32.727
32.7894
32.8508
32.9113
32.9708
33.0294
33.087
33.1437
33.1995
33.2543
33.3083
33.3613
33.4134
33.4647
33.515
33.5644
33.613
33.6607
33.7075
33.7535
33.7986
33.8428
33.8862
33.9287
33.9704
34.0113
34.0513
34.0905
34.1289
34.1664
34.2032
34.2391
34.2742
34.3085
34.342
34.3748
34.4067
34.4378
34.4682
34.4977
34.5265
34.5545
34.5817
34.6082
34.6339
34.6588
34.683
34.7064
34.729
34.7509
34.7721
34.7925
34.8121
34.831
34.8492
34.8666
34.8833
34.8992
34.9144
34.9289
34.9426
34.9556
34.9679
34.9794
34.9902
35.0003
35.0097
35.0183
35.0262
35.0334
35.0399
35.0456
35.0507
35.055
35.0586
35.0615
35.0636
35.0651
35.0658
-12.5465
-12.5401
-12.5274
-12.5083
-12.4829
-12.4512
-12.4131
-12.3687
-12.3181
-12.2612
-12.198
-12.1285
-12.0529
-11.971
-11.8829
-11.7886
-11.6882
-11.5816
-11.469
-11.3502
-11.2254
-11.0946
-10.9579
-10.8152
-10.6666
-10.5121
-10.3519
-10.1859
-10.0142
-9.83678
-9.65375
-9.46516
-9.27105
-9.07148
-8.86654
-8.6563
-8.44085
-8.22027
-7.99469
-7.7642
-7.52896
-7.2891
-7.04477
-6.79616
-6.54342
-6.28676
-6.02636
-5.76242
-5.49513
-5.22467
-4.95122
-4.67497
-4.39608
-4.1147
-3.83098
-3.54507
-3.25708
-2.96716
-2.67541
-2.38196
-2.08692
-1.79041
-1.49253
-1.1934
-0.893119
-0.591795
-0.289533
0.0135641
0.317395
0.62186
0.926862
1.23231
1.53809
1.84414
2.15035
2.45663
2.7629
3.06908
3.37507
3.68081
3.98621
4.2912
4.5957
4.89964
5.20295
5.50556
5.80741
6.10843
6.40855
6.70773
7.0059
7.303
7.59898
7.8938
8.18739
8.47972
8.77073
9.06038
9.34863
9.63543
9.92076
10.2046
10.4868
10.7675
11.0465
11.3239
11.5997
11.8737
12.146
12.4165
12.6852
12.9522
13.2173
13.4806
13.7421
14.0016
14.2593
14.5151
14.7689
15.0209
15.2709
15.519
15.7651
16.0092
16.2514
16.4916
16.7298
16.9661
17.2004
17.4327
17.663
17.8913
18.1176
18.3419
18.5643
18.7846
19.003
19.2194
19.4339
19.6463
19.8568
20.0653
20.2719
20.4765
20.6792
20.88
21.0788
21.2757
21.4706
21.6637
21.8549
22.0442
22.2316
22.4171
22.6008
22.7826
22.9626
23.1407
23.317
23.4915
23.6642
23.8351
24.0043
24.1716
24.3373
24.5011
24.6632
24.8236
24.9823
25.1393
25.2946
25.4483
25.6002
25.7505
25.8992
26.0463
26.1917
26.3355
26.4777
26.6183
26.7574
26.8949
27.0309
27.1653
27.2982
27.4296
27.5595
27.6879
27.8148
27.9403
28.0643
28.1868
28.308
28.4277
28.546
28.6629
28.7784
28.8925
29.0053
29.1167
29.2268
29.3356
29.443
29.5491
29.6539
29.7575
29.8597
29.9607
30.0604
30.1589
30.2561
30.3521
30.4469
30.5405
30.6329
30.724
30.8141
30.9029
30.9906
31.0771
31.1625
31.2467
31.3298
31.4118
31.4927
31.5725
31.6512
31.7288
31.8053
31.8808
31.9552
32.0286
32.1009
32.1722
32.2424
32.3117
32.3799
32.4471
32.5133
32.5785
32.6428
32.706
32.7683
32.8297
32.89
32.9494
33.0079
33.0655
33.1221
33.1777
33.2325
33.2864
33.3393
33.3913
33.4425
33.4927
33.5421
33.5906
33.6382
33.6849
33.7308
33.7758
33.82
33.8633
33.9057
33.9474
33.9882
34.0281
34.0672
34.1055
34.143
34.1797
34.2156
34.2506
34.2849
34.3183
34.351
34.3829
34.4139
34.4442
34.4737
34.5025
34.5304
34.5576
34.584
34.6097
34.6346
34.6587
34.6821
34.7047
34.7265
34.7476
34.768
34.7876
34.8065
34.8246
34.842
34.8586
34.8745
34.8897
34.9041
34.9178
34.9308
34.9431
34.9546
34.9654
34.9755
34.9848
34.9934
35.0013
35.0085
35.015
35.0207
35.0257
35.03
35.0336
35.0365
35.0386
35.0401
35.0408
-12.4979
-12.4916
-12.4791
-12.4603
-12.4353
-12.404
-12.3665
-12.3228
-12.2729
-12.2168
-12.1545
-12.0861
-12.0115
-11.9308
-11.844
-11.751
-11.652
-11.5469
-11.4357
-11.3186
-11.1955
-11.0665
-10.9315
-10.7907
-10.6441
-10.4916
-10.3334
-10.1695
-9.99992
-9.82471
-9.6439
-9.45755
-9.26569
-9.06839
-8.86571
-8.6577
-8.44445
-8.22601
-8.00248
-7.77395
-7.54053
-7.30233
-7.05949
-6.81215
-6.56048
-6.30465
-6.04484
-5.78127
-5.51413
-5.24362
-4.96996
-4.69334
-4.41396
-4.132
-3.84764
-3.56104
-3.27234
-2.98169
-2.68922
-2.39505
-2.0993
-1.8021
-1.50354
-1.20375
-0.902829
-0.600886
-0.298025
0.00565016
0.310038
0.61504
0.920558
1.2265
1.53276
1.83926
2.14589
2.45259
2.75925
3.0658
3.37215
3.67822
3.98393
4.28921
4.59398
4.89817
5.20172
5.50454
5.80659
6.10778
6.40807
6.70739
7.00568
7.3029
7.59897
7.89387
8.18752
8.47989
8.77093
9.0606
9.34885
9.63565
9.92095
10.2047
10.4869
10.7675
11.0465
11.3238
11.5994
11.8733
12.1455
12.4159
12.6845
12.9513
13.2163
13.4794
13.7407
14
14.2575
14.5131
14.7667
15.0185
15.2683
15.5161
15.762
16.0059
16.2478
16.4878
16.7257
16.9617
17.1957
17.4278
17.6578
17.8858
18.1118
18.3359
18.558
18.778
18.9961
19.2122
19.4264
19.6385
19.8487
20.0569
20.2632
20.4675
20.6699
20.8703
21.0688
21.2654
21.4601
21.6528
21.8437
22.0326
22.2197
22.405
22.5883
22.7698
22.9495
23.1273
23.3033
23.4775
23.6499
23.8205
23.9893
24.1564
24.3217
24.4853
24.6471
24.8072
24.9656
25.1223
25.2773
25.4306
25.5823
25.7323
25.8807
26.0274
26.1726
26.3161
26.458
26.5984
26.7372
26.8744
27.0101
27.1442
27.2769
27.408
27.5376
27.6658
27.7924
27.9176
28.0414
28.1637
28.2845
28.404
28.5221
28.6387
28.754
28.8679
28.9804
29.0916
29.2015
29.31
29.4172
29.5231
29.6277
29.731
29.833
29.9338
30.0333
30.1315
30.2285
30.3243
30.4189
30.5123
30.6045
30.6955
30.7853
30.8739
30.9614
31.0477
31.1329
31.217
31.2999
31.3817
31.4624
31.542
31.6205
31.698
31.7744
31.8497
31.9239
31.9971
32.0693
32.1404
32.2105
32.2796
32.3476
32.4147
32.4808
32.5458
32.6099
32.6731
32.7352
32.7964
32.8566
32.9159
32.9743
33.0317
33.0882
33.1437
33.1984
33.2521
33.3049
33.3568
33.4078
33.458
33.5072
33.5556
33.6031
33.6498
33.6955
33.7404
33.7845
33.8277
33.8701
33.9116
33.9523
33.9922
34.0312
34.0694
34.1068
34.1434
34.1792
34.2142
34.2484
34.2817
34.3143
34.3461
34.3771
34.4074
34.4368
34.4655
34.4934
34.5205
34.5468
34.5724
34.5973
34.6213
34.6447
34.6672
34.689
34.7101
34.7304
34.75
34.7688
34.7869
34.8042
34.8208
34.8367
34.8518
34.8662
34.8799
34.8929
34.9051
34.9166
34.9273
34.9374
34.9467
34.9553
34.9632
34.9704
34.9768
34.9826
34.9876
34.9919
34.9954
34.9983
35.0004
35.0019
35.0026
-12.4533
-12.4471
-12.4347
-12.4162
-12.3914
-12.3605
-12.3235
-12.2803
-12.231
-12.1755
-12.114
-12.0463
-11.9726
-11.8928
-11.8069
-11.7151
-11.6172
-11.5133
-11.4034
-11.2877
-11.166
-11.0385
-10.9051
-10.7659
-10.621
-10.4703
-10.314
-10.152
-9.98437
-9.81118
-9.63245
-9.44822
-9.25853
-9.06343
-8.86298
-8.65722
-8.4462
-8.23001
-8.00868
-7.78231
-7.55097
-7.31475
-7.07376
-6.82811
-6.57795
-6.32341
-6.06467
-5.80191
-5.53532
-5.26512
-4.99152
-4.71474
-4.43501
-4.15254
-3.86753
-3.58018
-3.29067
-2.99915
-2.70579
-2.41071
-2.11406
-1.81595
-1.51651
-1.21585
-0.91408
-0.611307
-0.307638
-0.00317776
0.301973
0.607715
0.913949
1.22058
1.52751
1.83466
2.14192
2.44922
2.75646
3.06356
3.37045
3.67703
3.98323
4.28897
4.59419
4.89881
5.20275
5.50596
5.80836
6.1099
6.41051
6.71013
7.0087
7.30618
7.6025
7.89761
8.19147
8.48403
8.77524
9.06506
9.35345
9.64037
9.92577
10.2096
10.4919
10.7726
11.0516
11.3289
11.6046
11.8785
12.1506
12.421
12.6896
12.9564
13.2213
13.4843
13.7455
14.0048
14.2622
14.5177
14.7712
15.0228
15.2725
15.5202
15.7659
16.0096
16.2514
16.4912
16.729
16.9648
17.1986
17.4305
17.6603
17.8881
18.1139
18.3378
18.5596
18.7795
18.9973
19.2132
19.4271
19.639
19.849
20.057
20.263
20.4671
20.6692
20.8694
21.0676
21.2639
21.4584
21.6509
21.8415
22.0302
22.217
22.4019
22.585
22.7663
22.9457
23.1232
23.299
23.4729
23.6451
23.8154
23.984
24.1508
24.3158
24.4791
24.6407
24.8005
24.9587
25.1151
25.2698
25.4229
25.5743
25.7241
25.8722
26.0187
26.1636
26.3069
26.4486
26.5887
26.7272
26.8642
26.9997
27.1336
27.266
27.3969
27.5262
27.6541
27.7806
27.9055
28.0291
28.1511
28.2718
28.391
28.5089
28.6253
28.7404
28.8541
28.9664
29.0774
29.187
29.2953
29.4023
29.508
29.6124
29.7155
29.8173
29.9179
30.0172
30.1153
30.2121
30.3077
30.4021
30.4953
30.5873
30.6781
30.7677
30.8562
30.9435
31.0297
31.1147
31.1986
31.2814
31.363
31.4436
31.523
31.6014
31.6787
31.7549
31.83
31.9041
31.9772
32.0492
32.1202
32.1901
32.2591
32.327
32.3939
32.4599
32.5248
32.5888
32.6518
32.7138
32.7749
32.835
32.8942
32.9524
33.0097
33.0661
33.1215
33.176
33.2296
33.2824
33.3342
33.3851
33.4351
33.4843
33.5326
33.58
33.6265
33.6722
33.717
33.761
33.8041
33.8464
33.8878
33.9285
33.9682
34.0072
34.0453
34.0827
34.1192
34.1549
34.1898
34.2239
34.2572
34.2897
34.3215
34.3524
34.3826
34.412
34.4406
34.4684
34.4955
34.5218
34.5473
34.5721
34.5961
34.6194
34.6419
34.6637
34.6847
34.705
34.7245
34.7433
34.7613
34.7786
34.7952
34.811
34.8261
34.8405
34.8542
34.8671
34.8793
34.8908
34.9015
34.9115
34.9208
34.9294
34.9373
34.9445
34.9509
34.9566
34.9616
34.9659
34.9695
34.9723
34.9745
34.9759
34.9766
-12.3973
-12.3912
-12.379
-12.3606
-12.3363
-12.3058
-12.2693
-12.2267
-12.178
-12.1233
-12.0626
-11.9958
-11.9231
-11.8444
-11.7596
-11.669
-11.5724
-11.4698
-11.3614
-11.2471
-11.127
-11.0011
-10.8694
-10.732
-10.5889
-10.4401
-10.2857
-10.1257
-9.96011
-9.78901
-9.61243
-9.4304
-9.24296
-9.05016
-8.85203
-8.64862
-8.44
-8.2262
-8.00728
-7.78331
-7.55434
-7.32045
-7.08171
-6.83822
-6.59009
-6.33742
-6.08036
-5.81905
-5.55367
-5.2844
-5.01147
-4.73508
-4.45548