/*--------------------------------*- C++ -*----------------------------------*\
| =========                 |                                                 |
| \\      /  F ield         | OpenFOAM: The Open Source CFD Toolbox           |
|  \\    /   O peration     | Version:  2212                                  |
|   \\  /    A nd           | Website:  www.openfoam.com                      |
|    \\/     M anipulation  |                                                 |
\*---------------------------------------------------------------------------*/
FoamFile
{
    version     2.0;
    format      ascii;
    arch        "LSB;label=32;scalar=64";
    class       surfaceScalarField;
    location    "70";
    object      phi;
}
// * * * * * * * * * * * * * * * * * * * * * * * * * * * * * * * * * * * * * //

dimensions      [1 0 -1 0 0 0 0];

oriented        oriented;

internalField   nonuniform List<scalar> 
408640
(
-551.666
552.649
-1103.9
552.721
-1656.01
552.594
-2207.68
552.151
-2758.66
551.451
-3308.6
550.407
-3857.12
548.986
-4403.8
547.145
-4948.17
544.823
-5489.69
541.974
-6027.82
538.566
-6561.97
534.577
-7091.52
529.974
-7615.88
524.769
-8134.58
519.099
-8647.43
513.242
-9154.48
507.437
-9655.74
501.636
-10150.9
495.501
-10639.2
488.673
-11119.9
481.064
-11592.5
472.888
-12056.6
464.459
-12512.2
455.908
-12959
447.114
-13396.7
437.927
-13824.8
428.375
-14243.1
418.608
-14651.6
408.717
-15050
398.675
-15438.2
388.456
-15816.1
378.126
-16183.7
367.782
-16540.9
357.449
-16887.8
347.1
-17224.4
336.727
-17550.5
326.35
-17866.3
315.983
-18171.8
305.628
-18466.9
295.28
-18751.6
284.938
-19026.1
274.608
-19290.2
264.306
-19544.1
254.044
-19787.7
243.828
-20021.2
233.664
-20244.6
223.557
-20458
213.516
-20661.4
203.549
-20854.9
193.665
-21038.6
183.871
-21212.7
174.176
-21377.1
164.589
-21532.1
155.117
-21677.8
145.765
-21814.2
136.539
-21941.5
127.444
-22059.9
118.483
-22169.4
109.661
-22270.3
100.98
-22362.6
92.4441
-22446.6
84.0558
-22522.3
75.818
-22589.9
67.7333
-22649.6
59.8043
-22701.6
52.0333
-22745.9
44.4225
-22782.8
36.9738
-22812.5
29.6889
-22835
22.5692
-22850.5
15.616
-22859.3
8.83012
-22861.4
2.21229
-22857.1
-4.23707
-22846.6
-10.5178
-22829.9
-16.6299
-22807.3
-22.5737
-22778.9
-28.3496
-22744.9
-33.9584
-22705.5
-39.4009
-22660.8
-44.6781
-22611
-49.7914
-22556.3
-54.742
-22496.7
-59.5316
-22432.6
-64.1617
-22363.9
-68.6343
-22291
-72.9511
-22213.9
-77.1142
-22132.8
-81.1258
-22047.8
-84.9879
-21959.1
-88.703
-21866.9
-92.2734
-21771.2
-95.7015
-21672.3
-98.9897
-21570.2
-102.141
-21465.1
-105.157
-21357.1
-108.041
-21246.3
-110.796
-21133
-113.424
-21017.1
-115.928
-20898.9
-118.31
-20778.4
-120.574
-20655.7
-122.722
-20531
-124.757
-20404.4
-126.682
-20276
-128.499
-20145.9
-130.211
-20014.2
-131.821
-19880.9
-133.332
-19746.3
-134.746
-19610.3
-136.066
-19473.1
-137.294
-19334.8
-138.434
-19195.5
-139.487
-19055.1
-140.457
-18913.9
-141.345
-18771.9
-142.155
-18629.1
-142.889
-18485.7
-143.549
-18341.7
-144.138
-18197.1
-144.657
-18052.2
-145.11
-17906.8
-145.499
-17761.1
-145.825
-17615.2
-146.092
-17469
-146.3
-17322.7
-146.453
-17176.3
-146.552
-17029.8
-146.6
-16883.4
-146.597
-16737
-146.547
-16590.7
-146.451
-16444.6
-146.31
-16298.6
-146.128
-16152.8
-145.905
-16007.3
-145.642
-15862.2
-145.343
-15717.3
-145.008
-15572.8
-144.639
-15428.8
-144.237
-15285.1
-143.805
-15141.9
-143.342
-14999.2
-142.852
-14857.1
-142.335
-14715.4
-141.792
-14574.4
-141.225
-14433.9
-140.635
-14294.1
-140.023
-14154.8
-139.391
-14016.3
-138.739
-13878.3
-138.069
-13741.1
-137.381
-13604.6
-136.678
-13468.8
-135.959
-13333.8
-135.225
-13199.4
-134.479
-13065.9
-133.719
-12933.1
-132.949
-12801.1
-132.167
-12669.9
-131.376
-12539.5
-130.575
-12409.8
-129.766
-12281.1
-128.949
-12153.1
-128.125
-12026
-127.295
-11899.6
-126.46
-11774.2
-125.619
-11649.6
-124.774
-11525.8
-123.925
-11402.9
-123.072
-11280.8
-122.217
-11159.6
-121.36
-11039.3
-120.501
-10919.8
-119.641
-10801.1
-118.78
-10683.4
-117.918
-10566.5
-117.057
-10450.4
-116.196
-10335.2
-115.336
-10220.9
-114.477
-10107.4
-113.619
-9994.81
-112.764
-9883.04
-111.91
-9772.13
-111.06
-9662.06
-110.212
-9552.83
-109.367
-9444.45
-108.525
-9336.9
-107.688
-9230.19
-106.854
-9124.3
-106.024
-9019.24
-105.198
-8915
-104.377
-8811.58
-103.561
-8708.96
-102.749
-8607.16
-101.943
-8506.15
-101.141
-8405.94
-100.346
-8306.51
-99.5555
-8207.87
-98.771
-8110.01
-97.9923
-8012.92
-97.2196
-7916.6
-96.453
-7821.03
-95.6925
-7726.22
-94.9383
-7632.16
-94.1906
-7538.84
-93.4493
-7446.25
-92.7145
-7354.39
-91.9864
-7263.24
-91.265
-7172.82
-90.5504
-7083.1
-89.8427
-6994.08
-89.1418
-6905.75
-88.4479
-6818.11
-87.761
-6731.15
-87.0812
-6644.86
-86.4084
-6559.23
-85.7428
-6474.27
-85.0843
-6389.95
-84.4329
-6306.28
-83.7888
-6223.24
-83.1519
-6140.83
-82.5223
-6059.05
-81.8999
-5977.88
-81.2848
-5897.31
-80.6769
-5817.35
-80.0764
-5737.98
-79.4831
-5659.19
-78.8971
-5580.98
-78.3184
-5503.34
-77.747
-5426.27
-77.1828
-5349.75
-76.626
-5273.78
-76.0764
-5198.36
-75.534
-5123.47
-74.9989
-5049.1
-74.471
-4975.26
-73.9504
-4901.92
-73.4369
-4829.1
-72.9306
-4756.77
-72.4315
-4684.93
-71.9395
-4613.58
-71.4546
-4542.71
-70.9768
-4472.3
-70.5061
-4402.36
-70.0424
-4332.88
-69.5858
-4263.84
-69.1362
-4195.25
-68.6935
-4127.09
-68.2578
-4059.36
-67.829
-3992.05
-67.4071
-3925.16
-66.9921
-3858.67
-66.5839
-3792.59
-66.1825
-3726.89
-65.788
-3661.59
-65.4001
-3596.67
-65.019
-3532.12
-64.6446
-3467.94
-64.2768
-3404.11
-63.9157
-3340.65
-63.5612
-3277.53
-63.2133
-3214.75
-62.8719
-3152.3
-62.537
-3090.19
-62.2086
-3028.39
-61.8867
-2966.91
-61.5712
-2905.74
-61.2622
-2844.88
-60.9594
-2784.3
-60.6631
-2724.02
-60.373
-2664.02
-60.0893
-2604.3
-59.8118
-2544.85
-59.5406
-2485.66
-59.2755
-2426.73
-59.0167
-2368.06
-58.764
-2309.63
-58.5174
-2251.44
-58.2769
-2193.48
-58.0425
-2135.76
-57.8142
-2078.25
-57.5919
-2020.96
-57.3756
-1963.88
-57.1653
-1907.01
-56.961
-1850.33
-56.7626
-1793.85
-56.5701
-1737.55
-56.3835
-1681.43
-56.2028
-1625.49
-56.0279
-1569.72
-55.8589
-1514.11
-55.6957
-1458.65
-55.5383
-1403.35
-55.3867
-1348.19
-55.2409
-1293.18
-55.1008
-1238.29
-54.9664
-1183.54
-54.8377
-1128.91
-54.7148
-1074.4
-54.5975
-1019.99
-54.4859
-965.696
-54.38
-911.5
-54.2797
-857.398
-54.1851
-803.385
-54.0961
-749.455
-54.0127
-695.603
-53.9349
-641.823
-53.8627
-588.109
-53.7961
-534.456
-53.7351
-480.859
-53.6796
-427.312
-53.6298
-373.809
-53.5856
-320.344
-53.547
-266.912
-53.5141
-213.507
-53.4875
-160.122
-53.4675
-106.748
-53.4556
-53.3775
-53.4528
-53.4596
-548.072
1101.15
-1096.3
1101.38
-1644.4
1101.12
-2192.13
1100.3
-2739.17
1098.91
-3285.18
1096.83
-3829.79
1094
-4372.62
1090.38
-4913.26
1085.87
-5451.3
1080.41
-5986.27
1073.92
-6517.68
1066.37
-7045.03
1057.7
-7567.85
1047.95
-8085.71
1037.32
-8598.35
1026.24
-9105.63
1015.07
-9607.36
1003.71
-10103.1
991.618
-10592.4
978.229
-11074.4
963.408
-11548.7
947.503
-12014.9
931.002
-12472.8
914.099
-12922
896.586
-13362
878.232
-13792.5
859.126
-14213.2
839.554
-14623.9
819.669
-15024.4
799.418
-15414.4
778.768
-15794
757.879
-16162.9
736.954
-16521.3
716.049
-16869.1
695.113
-17206.3
674.138
-17532.9
653.175
-17849
632.259
-18154.6
611.392
-18449.7
590.566
-18734.3
569.772
-19008.6
549.021
-19272.5
528.348
-19526
507.775
-19769.3
487.309
-20002.5
466.957
-20225.5
446.729
-20438.5
426.638
-20641.5
406.7
-20834.6
386.93
-21017.9
367.343
-21191.5
347.956
-21355.6
328.787
-21510.2
309.848
-21655.5
291.151
-21791.5
272.708
-21918.5
254.526
-22036.5
236.614
-22145.7
218.979
-22246.2
201.627
-22338.2
184.564
-22421.9
167.797
-22497.3
151.331
-22564.6
135.171
-22624.1
119.322
-22675.7
103.79
-22719.8
88.5775
-22756.5
73.6895
-22785.8
59.1291
-22808.1
44.8993
-22823.4
31.0024
-22832
17.4403
-22833.9
4.21432
-22829.4
-8.67469
-22818.7
-21.2264
-22801.8
-33.4408
-22779
-45.3186
-22750.5
-56.8608
-22716.3
-68.0686
-22676.8
-78.9439
-22632
-89.4887
-22582
-99.7057
-22527.2
-109.597
-22467.5
-119.167
-22403.3
-128.418
-22334.5
-137.354
-22261.5
-145.978
-22184.4
-154.296
-22103.2
-162.31
-22018.2
-170.025
-21929.5
-177.447
-21837.2
-184.579
-21741.5
-191.427
-21642.5
-197.995
-21540.4
-204.289
-21435.3
-210.314
-21327.3
-216.074
-21216.6
-221.576
-21103.3
-226.825
-20987.4
-231.825
-20869.2
-236.583
-20748.8
-241.104
-20626.2
-245.394
-20501.5
-249.458
-20375
-253.301
-20246.7
-256.929
-20116.6
-260.347
-19985
-263.561
-19851.8
-266.577
-19717.3
-269.399
-19581.4
-272.033
-19444.3
-274.485
-19306.1
-276.759
-19166.9
-278.861
-19026.6
-280.796
-18885.5
-282.568
-18743.6
-284.184
-18601
-285.647
-18457.7
-286.964
-18313.8
-288.137
-18169.5
-289.173
-18024.6
-290.075
-17879.4
-290.849
-17733.9
-291.499
-17588.1
-292.029
-17442.1
-292.443
-17295.9
-292.746
-17149.7
-292.941
-17003.4
-293.033
-16857.1
-293.026
-16710.9
-292.923
-16564.8
-292.729
-16418.8
-292.446
-16273
-292.079
-16127.4
-291.631
-15982.1
-291.105
-15837.1
-290.505
-15692.5
-289.833
-15548.2
-289.094
-15404.3
-288.289
-15260.8
-287.423
-15117.8
-286.498
-14975.3
-285.516
-14833.3
-284.48
-14691.9
-283.394
-14551
-282.259
-14410.7
-281.079
-14271.1
-279.855
-14132
-278.59
-13993.7
-277.286
-13855.9
-275.945
-13718.9
-274.57
-13582.6
-273.162
-13447
-271.724
-13312.1
-270.257
-13178
-268.764
-13044.6
-267.246
-12912
-265.704
-12780.2
-264.141
-12649.2
-262.559
-12519
-260.958
-12389.6
-259.34
-12261
-257.707
-12133.2
-256.06
-12006.2
-254.4
-11880.1
-252.729
-11754.9
-251.048
-11630.4
-249.358
-11506.8
-247.661
-11384.1
-245.957
-11262.2
-244.248
-11141.2
-242.534
-11021
-240.816
-10901.7
-239.097
-10783.3
-237.375
-10665.7
-235.653
-10549
-233.931
-10433.1
-232.21
-10318.1
-230.491
-10204
-228.774
-10090.7
-227.06
-9978.23
-225.35
-9866.64
-223.644
-9755.9
-221.944
-9646
-220.249
-9536.95
-218.56
-9428.74
-216.878
-9321.36
-215.203
-9214.82
-213.536
-9109.11
-211.877
-9004.21
-210.227
-8900.14
-208.586
-8796.88
-206.954
-8694.44
-205.332
-8592.79
-203.72
-8491.95
-202.119
-8391.9
-200.529
-8292.64
-198.949
-8194.16
-197.381
-8096.46
-195.825
-7999.52
-194.281
-7903.36
-192.748
-7807.95
-191.229
-7713.29
-189.721
-7619.38
-188.227
-7526.21
-186.745
-7433.78
-185.277
-7342.07
-183.822
-7251.08
-182.38
-7160.8
-180.952
-7071.22
-179.537
-6982.35
-178.137
-6894.17
-176.75
-6806.67
-175.377
-6719.86
-174.018
-6633.71
-172.674
-6548.23
-171.343
-6463.4
-170.027
-6379.22
-168.726
-6295.69
-167.439
-6212.79
-166.166
-6130.52
-164.907
-6048.87
-163.664
-5967.84
-162.434
-5887.41
-161.22
-5807.58
-160.019
-5728.34
-158.834
-5649.68
-157.663
-5571.6
-156.506
-5494.1
-155.364
-5417.15
-154.237
-5340.76
-153.124
-5264.92
-152.026
-5189.62
-150.942
-5114.85
-149.872
-5040.61
-148.817
-4966.89
-147.777
-4893.68
-146.751
-4820.98
-145.739
-4748.77
-144.742
-4677.06
-143.758
-4605.82
-142.789
-4535.07
-141.835
-4464.78
-140.894
-4394.96
-139.967
-4325.59
-139.055
-4256.67
-138.156
-4188.19
-137.272
-4120.15
-136.401
-4052.53
-135.544
-3985.34
-134.701
-3918.55
-133.872
-3852.18
-133.056
-3786.2
-132.254
-3720.62
-131.465
-3655.43
-130.69
-3590.62
-129.929
-3526.17
-129.18
-3462.1
-128.446
-3398.39
-127.724
-3335.03
-127.016
-3272.01
-126.32
-3209.34
-125.638
-3147
-124.969
-3084.99
-124.313
-3023.3
-123.669
-2961.92
-123.039
-2900.85
-122.421
-2840.09
-121.816
-2779.62
-121.224
-2719.44
-120.645
-2659.54
-120.078
-2599.92
-119.523
-2540.57
-118.981
-2481.48
-118.451
-2422.65
-117.934
-2364.07
-117.429
-2305.74
-116.936
-2247.65
-116.456
-2189.79
-115.987
-2132.16
-115.531
-2074.76
-115.087
-2017.56
-114.655
-1960.58
-114.234
-1903.8
-113.826
-1847.22
-113.43
-1790.83
-113.045
-1734.63
-112.672
-1678.61
-112.311
-1622.76
-111.962
-1567.08
-111.624
-1511.56
-111.298
-1456.2
-110.983
-1400.99
-110.68
-1345.93
-110.389
-1291
-110.109
-1236.21
-109.84
-1181.55
-109.583
-1127.01
-109.338
-1072.59
-109.103
-1018.28
-108.88
-964.072
-108.669
-909.967
-108.468
-855.956
-108.279
-802.033
-108.101
-748.194
-107.935
-694.433
-107.779
-640.743
-107.635
-587.12
-107.502
-533.558
-107.38
-480.051
-107.269
-426.593
-107.169
-373.18
-107.081
-319.806
-107.004
-266.464
-106.938
-213.149
-106.884
-159.855
-106.844
-106.572
-106.82
-53.2919
-106.815
-106.834
-543.574
1645.06
-1087.23
1645.36
-1630.73
1644.95
-2173.84
1643.73
-2716.25
1641.64
-3257.62
1638.53
-3797.62
1634.32
-4335.91
1628.98
-4872.15
1622.44
-5406.02
1614.59
-5937.13
1605.34
-6465.08
1594.63
-6989.49
1582.41
-7509.98
1568.74
-8026.21
1553.85
-8537.88
1538.21
-9044.7
1522.18
-9546.33
1505.64
-10042.4
1487.94
-10532.3
1468.47
-11015.7
1447.08
-11492.1
1424.14
-11961
1400.16
-12421.9
1375.34
-12874.5
1349.42
-13318.2
1322.17
-13752.5
1293.74
-14177.2
1264.51
-14592
1234.67
-14996.4
1204.12
-15390.3
1172.86
-15773.3
1141.18
-16145.5
1109.38
-16506.8
1077.56
-16857.1
1045.66
-17196.5
1013.7
-17524.9
981.761
-17842.3
949.934
-18149
918.227
-18444.9
886.628
-18730
855.118
-19004.5
823.721
-19268.5
792.492
-19522
761.465
-19765.2
730.641
-19998.1
700.018
-20220.8
669.606
-20433.5
639.42
-20636.1
609.478
-20828.8
579.796
-21011.7
550.398
-21184.9
521.308
-21348.6
492.548
-21502.7
464.139
-21647.5
436.097
-21783.1
408.436
-21909.7
381.17
-22027.2
354.31
-22136
327.866
-22236.1
301.848
-22327.7
276.263
-22410.9
251.122
-22485.9
226.432
-22552.9
202.201
-22611.9
178.438
-22663.2
155.149
-22706.9
132.341
-22743.1
110.019
-22772.1
88.1893
-22794
66.8558
-22809
46.022
-22817.1
25.6907
-22818.7
5.86387
-22813.9
-13.4572
-22802.8
-32.2719
-22785.6
-50.5806
-22762.5
-68.384
-22733.7
-85.6837
-22699.2
-102.482
-22659.4
-118.781
-22614.3
-134.584
-22564.1
-149.896
-22508.9
-164.719
-22449
-179.06
-22384.5
-192.922
-22315.6
-206.311
-22242.3
-219.234
-22164.9
-231.696
-22083.6
-243.703
-21998.3
-255.263
-21909.4
-266.381
-21817
-277.066
-21721.1
-287.324
-21622
-297.163
-21519.7
-306.59
-21414.5
-315.614
-21306.3
-324.242
-21195.5
-332.482
-21082
-340.342
-20966.1
-347.831
-20847.8
-354.956
-20727.2
-361.725
-20604.6
-368.148
-20479.9
-374.232
-20353.3
-379.985
-20224.9
-385.416
-20094.8
-390.533
-19963.1
-395.344
-19829.9
-399.857
-19695.3
-404.08
-19559.4
-408.022
-19422.3
-411.69
-19284.1
-415.091
-19144.9
-418.235
-19004.6
-421.129
-18863.6
-423.779
-18721.7
-426.194
-18579.1
-428.381
-18435.8
-430.348
-18292
-432.101
-18147.6
-433.647
-18002.8
-434.994
-17857.7
-436.148
-17712.2
-437.116
-17566.5
-437.904
-17420.5
-438.519
-17274.5
-438.968
-17128.3
-439.255
-16982.1
-439.388
-16835.9
-439.372
-16689.8
-439.213
-16543.7
-438.917
-16397.8
-438.488
-16252.1
-437.933
-16106.7
-437.257
-15961.5
-436.464
-15816.6
-435.56
-15672
-434.549
-15527.8
-433.436
-15384.1
-432.226
-15240.7
-430.924
-15097.8
-429.533
-14955.5
-428.057
-14813.6
-426.502
-14672.3
-424.87
-14531.5
-423.166
-14391.4
-421.393
-14251.9
-419.555
-14113
-417.655
-13974.7
-415.698
-13837.1
-413.685
-13700.2
-411.621
-13564.1
-409.508
-13428.6
-407.35
-13293.9
-405.149
-13159.9
-402.908
-13026.7
-400.629
-12894.2
-398.317
-12762.5
-395.972
-12631.7
-393.597
-12501.6
-391.195
-12372.3
-388.768
-12243.9
-386.318
-12116.2
-383.847
-11989.4
-381.358
-11863.5
-378.851
-11738.3
-376.33
-11614.1
-373.795
-11490.6
-371.25
-11368
-368.694
-11246.3
-366.13
-11125.4
-363.56
-11005.4
-360.984
-10886.3
-358.405
-10768
-355.823
-10650.5
-353.241
-10534
-350.658
-10418.2
-348.078
-10303.4
-345.499
-10189.4
-342.924
-10076.2
-340.355
-9963.92
-337.79
-9852.48
-335.233
-9741.88
-332.683
-9632.13
-330.141
-9523.22
-327.609
-9415.15
-325.087
-9307.92
-322.576
-9201.52
-320.077
-9095.94
-317.59
-8991.19
-315.115
-8887.26
-312.655
-8784.14
-310.208
-8681.83
-307.777
-8580.33
-305.36
-8479.62
-302.959
-8379.71
-300.575
-8280.58
-298.207
-8182.24
-295.856
-8084.67
-293.523
-7987.88
-291.208
-7891.84
-288.911
-7796.57
-286.632
-7702.04
-284.372
-7608.27
-282.132
-7515.23
-279.911
-7422.92
-277.709
-7331.34
-275.528
-7240.47
-273.367
-7150.32
-271.226
-7060.88
-269.105
-6972.13
-267.005
-6884.07
-264.926
-6796.7
-262.869
-6710.01
-260.832
-6623.98
-258.816
-6538.62
-256.822
-6453.92
-254.849
-6369.86
-252.898
-6286.45
-250.968
-6203.67
-249.06
-6121.52
-247.174
-6039.99
-245.31
-5959.07
-243.467
-5878.75
-241.646
-5799.04
-239.847
-5719.91
-238.07
-5641.37
-236.314
-5563.41
-234.581
-5486.01
-232.869
-5409.18
-231.179
-5332.9
-229.511
-5257.17
-227.864
-5181.98
-226.24
-5107.32
-224.637
-5033.19
-223.056
-4959.57
-221.496
-4886.47
-219.958
-4813.87
-218.441
-4741.77
-216.946
-4670.16
-215.472
-4599.04
-214.02
-4528.38
-212.589
-4458.2
-211.179
-4388.48
-209.79
-4319.21
-208.422
-4250.39
-207.075
-4182.02
-205.749
-4114.07
-204.444
-4046.55
-203.16
-3979.46
-201.896
-3912.77
-200.653
-3846.5
-199.43
-3780.62
-198.228
-3715.13
-197.046
-3650.04
-195.885
-3585.32
-194.743
-3520.97
-193.621
-3456.99
-192.52
-3393.37
-191.438
-3330.11
-190.376
-3267.18
-189.334
-3204.6
-188.312
-3142.36
-187.309
-3080.44
-186.325
-3018.84
-185.361
-2957.55
-184.416
-2896.57
-183.49
-2835.9
-182.584
-2775.52
-181.696
-2715.42
-180.827
-2655.61
-179.977
-2596.08
-179.146
-2536.82
-178.334
-2477.82
-177.54
-2419.07
-176.765
-2360.58
-176.008
-2302.34
-175.269
-2244.33
-174.549
-2186.56
-173.847
-2129.02
-173.163
-2071.69
-172.497
-2014.59
-171.849
-1957.69
-171.22
-1900.99
-170.607
-1844.5
-170.013
-1788.19
-169.437
-1732.07
-168.878
-1676.13
-168.337
-1620.36
-167.813
-1564.76
-167.307
-1509.33
-166.818
-1454.05
-166.346
-1398.92
-165.892
-1343.94
-165.456
-1289.1
-165.036
-1234.39
-164.633
-1179.81
-164.248
-1125.35
-163.88
-1071.01
-163.529
-1016.78
-163.194
-962.65
-162.877
-908.624
-162.577
-854.693
-162.293
-800.85
-162.027
-747.09
-161.777
-693.408
-161.544
-639.798
-161.328
-586.254
-161.128
-532.77
-160.945
-479.342
-160.779
-425.964
-160.63
-372.63
-160.497
-319.334
-160.382
-266.071
-160.283
-212.835
-160.203
-159.619
-160.143
-106.414
-160.107
-53.2113
-160.1
-160.127
-537.809
2183.11
-1075.52
2183.32
-1613
2182.66
-2150.05
2181.01
-2686.37
2178.2
-3221.68
2174.07
-3755.66
2168.54
-4288.04
2161.59
-4818.55
2153.18
-5346.94
2143.2
-5872.9
2131.52
-6396.11
2118.06
-6916.28
2102.8
-7433.15
2085.82
-7946.44
2067.35
-8455.84
2047.82
-8960.98
2027.53
-9461.45
2006.32
-9956.87
1983.57
-10446.9
1958.69
-10931.1
1931.54
-11409.2
1902.45
-11880.7
1871.84
-12344.9
1839.8
-12801.4
1806.1
-13249.5
1770.56
-13689
1733.41
-14119.3
1695.02
-14539.9
1655.54
-14950.4
1614.87
-15350.4
1573.07
-15739.5
1530.51
-16117.5
1487.64
-16484.3
1444.57
-16839.7
1401.26
-17183.6
1357.78
-17515.9
1314.31
-17836.7
1270.98
-18146.2
1227.86
-18444.3
1184.94
-18731.2
1142.19
-19006.9
1099.68
-19271.8
1057.5
-19525.8
1015.69
-19769.3
974.238
-20002.2
933.13
-20224.8
892.367
-20437.2
851.958
-20639.5
811.916
-20831.8
772.251
-21014.2
732.988
-21186.9
694.155
-21350
655.779
-21503.6
617.882
-21647.9
580.484
-21782.9
543.601
-21908.9
507.248
-22025.9
471.44
-22134.1
436.188
-22233.7
401.504
-22324.7
367.399
-22407.4
333.886
-22481.8
300.974
-22548.2
268.676
-22606.7
237.001
-22657.4
205.959
-22700.5
175.558
-22736.2
145.807
-22764.7
116.713
-22786
88.2808
-22800.5
60.5161
-22808.1
33.4221
-22809.2
7.00163
-22803.9
-18.7438
-22792.3
-43.8135
-22774.6
-68.2078
-22751
-91.9279
-22721.7
-114.976
-22686.8
-137.354
-22646.5
-159.067
-22601
-180.119
-22550.3
-200.514
-22494.8
-220.258
-22434.5
-239.358
-22369.6
-257.82
-22300.2
-275.652
-22226.6
-292.862
-22148.9
-309.456
-22067.1
-325.445
-21981.6
-340.836
-21892.4
-355.64
-21799.6
-369.865
-21703.4
-383.522
-21604
-396.619
-21501.5
-409.169
-21395.9
-421.18
-21287.6
-432.664
-21176.5
-443.63
-21062.8
-454.091
-20946.6
-464.056
-20828.1
-473.536
-20707.4
-482.543
-20584.5
-491.088
-20459.6
-499.181
-20332.9
-506.834
-20204.3
-514.057
-20074.1
-520.862
-19942.3
-527.26
-19809
-533.26
-19674.3
-538.875
-19538.3
-544.114
-19401.1
-548.989
-19262.8
-553.509
-19123.4
-557.686
-18983.2
-561.529
-18842
-565.048
-18700.1
-568.254
-18557.4
-571.157
-18414.1
-573.766
-18270.3
-576.09
-18125.9
-578.139
-17981.1
-579.923
-17835.9
-581.45
-17690.5
-582.729
-17544.7
-583.769
-17398.8
-584.579
-17252.8
-585.166
-17106.6
-585.54
-16960.5
-585.707
-16814.3
-585.677
-16668.2
-585.456
-16522.2
-585.052
-16376.4
-584.472
-16230.8
-583.724
-16085.4
-582.815
-15940.2
-581.75
-15795.4
-580.538
-15650.9
-579.183
-15506.9
-577.694
-15363.2
-576.074
-15219.9
-574.332
-15077.1
-572.471
-14934.9
-570.499
-14793.1
-568.42
-14651.9
-566.239
-14511.3
-563.962
-14371.2
-561.594
-14231.8
-559.139
-14093
-556.603
-13954.9
-553.989
-13817.4
-551.302
-13680.7
-548.547
-13544.6
-545.727
-13409.3
-542.846
-13274.7
-539.909
-13140.8
-536.919
-13007.7
-533.879
-12875.4
-530.793
-12743.9
-527.664
-12613.2
-524.496
-12483.2
-521.292
-12354.1
-518.055
-12225.8
-514.787
-12098.3
-511.491
-11971.6
-508.171
-11845.8
-504.828
-11720.8
-501.466
-11596.7
-498.086
-11473.4
-494.691
-11351
-491.283
-11229.4
-487.864
-11108.7
-484.437
-10988.8
-481.003
-10869.8
-477.564
-10751.6
-474.122
-10634.4
-470.679
-10517.9
-467.236
-10402.4
-463.795
-10287.6
-460.358
-10173.8
-456.925
-10060.8
-453.499
-9948.65
-450.081
-9837.35
-446.672
-9726.91
-443.273
-9617.31
-439.885
-9508.55
-436.51
-9400.63
-433.148
-9293.54
-429.801
-9187.29
-426.469
-9081.86
-423.154
-8977.26
-419.857
-8873.47
-416.577
-8770.5
-413.316
-8668.34
-410.075
-8566.98
-406.854
-8466.41
-403.655
-8366.65
-400.477
-8267.66
-397.321
-8169.46
-394.188
-8072.04
-391.079
-7975.38
-387.993
-7879.49
-384.932
-7784.35
-381.895
-7689.97
-378.884
-7596.33
-375.898
-7503.43
-372.938
-7411.26
-370.004
-7319.82
-367.097
-7229.09
-364.217
-7139.07
-361.364
-7049.76
-358.538
-6961.15
-355.74
-6873.23
-352.97
-6785.99
-350.227
-6699.42
-347.513
-6613.53
-344.827
-6528.3
-342.17
-6443.73
-339.541
-6359.8
-336.941
-6276.51
-334.37
-6193.86
-331.828
-6111.84
-329.314
-6030.43
-326.83
-5949.64
-324.374
-5869.45
-321.948
-5789.85
-319.551
-5710.85
-317.183
-5632.43
-314.844
-5554.59
-312.534
-5477.32
-310.253
-5400.6
-308.001
-5324.44
-305.779
-5248.83
-303.585
-5173.76
-301.42
-5099.22
-299.284
-5025.2
-297.177
-4951.7
-295.099
-4878.72
-293.05
-4806.23
-291.029
-4734.24
-289.037
-4662.75
-287.074
-4591.73
-285.138
-4521.19
-283.231
-4451.12
-281.353
-4381.51
-279.502
-4312.35
-277.68
-4243.64
-275.886
-4175.37
-274.119
-4107.53
-272.38
-4040.12
-270.669
-3973.13
-268.985
-3906.55
-267.329
-3840.38
-265.7
-3774.61
-264.098
-3709.23
-262.523
-3644.23
-260.975
-3579.62
-259.455
-3515.37
-257.96
-3451.5
-256.493
-3387.98
-255.052
-3324.81
-253.637
-3261.99
-252.248
-3199.51
-250.886
-3137.36
-249.55
-3075.54
-248.239
-3014.04
-246.955
-2952.85
-245.696
-2891.97
-244.462
-2831.39
-243.254
-2771.1
-242.072
-2711.11
-240.914
-2651.39
-239.782
-2591.95
-238.675
-2532.78
-237.592
-2473.88
-236.535
-2415.23
-235.502
-2356.83
-234.493
-2298.68
-233.509
-2240.77
-232.55
-2183.09
-231.614
-2125.63
-230.703
-2068.4
-229.816
-2011.38
-228.953
-1954.58
-228.114
-1897.97
-227.299
-1841.56
-226.507
-1785.35
-225.739
-1729.32
-224.994
-1673.46
-224.273
-1617.79
-223.575
-1562.28
-222.901
-1506.93
-222.25
-1451.74
-221.622
-1396.7
-221.017
-1341.8
-220.435
-1287.05
-219.876
-1232.43
-219.34
-1177.93
-218.826
-1123.56
-218.336
-1069.3
-217.868
-1015.16
-217.422
-961.12
-217
-907.18
-216.6
-853.335
-216.222
-799.577
-215.867
-745.903
-215.534
-692.306
-215.223
-638.781
-214.935
-585.322
-214.67
-531.924
-214.426
-478.581
-214.205
-425.288
-214.006
-372.038
-213.829
-318.827
-213.675
-265.649
-213.543
-212.498
-213.436
-159.367
-213.356
-106.247
-213.308
-53.1298
-213.3
-213.339
-532.051
2715.33
-1063.9
2715.33
-1595.41
2714.34
-2126.41
2712.18
-2656.66
2708.62
-3185.91
2703.47
-3713.88
2696.67
-4240.34
2688.22
-4765.08
2678.07
-5287.85
2666.13
-5808.41
2652.23
-6326.47
2636.26
-6841.78
2618.24
-7354.09
2598.27
-7863.21
2576.61
-8368.88
2553.61
-8870.74
2529.53
-9368.42
2504.14
-9861.6
2476.88
-10350
2447.24
-10833.4
2415.09
-11311.5
2380.66
-11783.7
2344.22
-12249.6
2305.81
-12708.5
2265.21
-13160.1
2222.32
-13604
2177.39
-14039.5
2130.74
-14466.2
2082.41
-14883.4
2032.3
-15290.7
1980.51
-15687.5
1927.5
-16073.4
1873.76
-16448.1
1819.44
-16811.1
1764.53
-17162.3
1709.16
-17501.4
1653.64
-17828.4
1598.2
-18143.3
1542.94
-18446.1
1487.92
-18736.9
1433.16
-19015.8
1378.78
-19283
1324.94
-19538.9
1271.73
-19783.6
1219.11
-20017.4
1167.07
-20240.4
1115.58
-20453
1064.65
-20655.2
1014.27
-20847.2
964.448
-21029.3
915.184
-21201.5
866.509
-21364
818.447
-21517
771.016
-21660.6
724.231
-21795
678.106
-21920.3
632.654
-22036.6
587.89
-22144.2
543.825
-22243
500.472
-22333.4
457.844
-22415.3
415.957
-22489.1
374.822
-22554.8
334.454
-22612.5
294.867
-22662.6
256.071
-22705
218.079
-22740
180.9
-22767.8
144.543
-22788.4
109.016
-22802.2
74.3242
-22809.2
40.4725
-22809.6
7.46396
-22803.6
-24.6994
-22791.3
-56.0169
-22773
-86.4889
-22748.8
-116.117
-22718.8
-144.904
-22683.3
-172.853
-22642.4
-199.969
-22596.2
-226.258
-22545
-251.726
-22488.8
-276.379
-22428
-300.227
-22362.5
-323.277
-22292.6
-345.539
-22218.5
-367.021
-22140.2
-387.736
-22058
-407.693
-21971.9
-426.903
-21882.2
-445.378
-21789
-463.13
-21692.4
-480.171
-21592.5
-496.514
-21489.6
-512.171
-21383.6
-527.156
-21274.9
-541.482
-21163.4
-555.161
-21049.3
-568.208
-20932.8
-580.636
-20814
-592.458
-20692.9
-603.69
-20569.7
-614.343
-20444.5
-624.432
-20317.5
-633.972
-20188.6
-642.974
-20058.1
-651.455
-19926.1
-659.426
-19792.5
-666.901
-19657.6
-673.895
-19521.4
-680.42
-19384
-686.489
-19245.5
-692.116
-19106
-697.315
-18965.5
-702.096
-18824.2
-706.474
-18682.2
-710.46
-18539.4
-714.068
-18396
-717.309
-18252
-720.194
-18107.5
-722.737
-17962.6
-724.948
-17817.4
-726.838
-17671.8
-728.42
-17526
-729.703
-17380.1
-730.698
-17233.9
-731.417
-17087.8
-731.868
-16941.6
-732.062
-16795.4
-732.01
-16649.3
-731.719
-16503.3
-731.201
-16357.4
-730.463
-16211.8
-729.515
-16066.4
-728.366
-15921.3
-727.024
-15776.5
-725.497
-15632
-723.793
-15488
-721.92
-15344.3
-719.886
-15201.1
-717.698
-15058.4
-715.363
-14916.2
-712.889
-14774.5
-710.282
-14633.3
-707.548
-14492.7
-704.694
-14352.8
-701.726
-14213.4
-698.651
-14074.7
-695.474
-13936.7
-692.2
-13799.3
-688.835
-13662.6
-685.385
-13526.6
-681.855
-13391.4
-678.249
-13256.9
-674.573
-13123.2
-670.83
-12990.2
-667.026
-12858
-663.165
-12726.5
-659.25
-12595.9
-655.287
-12466.1
-651.278
-12337.1
-647.228
-12208.9
-643.141
-12081.5
-639.019
-11955
-634.866
-11829.3
-630.685
-11704.4
-626.48
-11580.4
-622.253
-11457.2
-618.008
-11334.9
-613.747
-11213.5
-609.472
-11092.9
-605.187
-10973.1
-600.893
-10854.2
-596.594
-10736.2
-592.29
-10619.1
-587.986
-10502.8
-583.682
-10387.3
-579.381
-10272.8
-575.084
-10159
-570.793
-10046.2
-566.511
-9934.15
-562.238
-9822.99
-557.977
-9712.68
-553.728
-9603.21
-549.494
-9494.58
-545.276
-9386.8
-541.074
-9279.85
-536.891
-9173.73
-532.727
-9068.44
-528.584
-8963.97
-524.463
-8860.32
-520.364
-8757.48
-516.29
-8655.45
-512.239
-8554.23
-508.215
-8453.8
-504.216
-8354.16
-500.245
-8255.31
-496.302
-8157.24
-492.387
-8059.95
-488.502
-7963.43
-484.646
-7867.67
-480.821
-7772.66
-477.027
-7678.41
-473.264
-7584.9
-469.533
-7492.13
-465.835
-7400.09
-462.17
-7308.77
-458.537
-7218.17
-454.939
-7128.29
-451.374
-7039.1
-447.844
-6950.61
-444.348
-6862.82
-440.887
-6775.7
-437.461
-6689.27
-434.07
-6603.5
-430.714
-6518.39
-427.395
-6433.94
-424.11
-6350.13
-420.862
-6266.97
-417.65
-6184.44
-414.474
-6102.53
-411.334
-6021.25
-408.23
-5940.57
-405.163
-5860.5
-402.131
-5781.03
-399.137
-5702.14
-396.178
-5623.84
-393.256
-5546.11
-390.371
-5468.95
-387.522
-5392.36
-384.709
-5316.31
-381.932
-5240.81
-379.192
-5165.85
-376.488
-5091.42
-373.82
-5017.52
-371.188
-4944.13
-368.592
-4871.25
-366.032
-4798.88
-363.508
-4727
-361.019
-4655.61
-358.566
-4584.7
-356.149
-4514.27
-353.767
-4444.3
-351.421
-4374.8
-349.109
-4305.74
-346.833
-4237.14
-344.591
-4168.97
-342.384
-4101.24
-340.212
-4033.93
-338.075
-3967.04
-335.972
-3900.57
-333.903
-3834.49
-331.868
-3768.82
-329.867
-3703.54
-327.9
-3638.65
-325.967
-3574.13
-324.067
-3509.98
-322.201
-3446.2
-320.368
-3382.78
-318.568
-3319.71
-316.8
-3256.99
-315.066
-3194.6
-313.365
-3132.55
-311.695
-3070.82
-310.059
-3009.41
-308.454
-2948.32
-306.881
-2887.53
-305.341
-2827.05
-303.832
-2766.85
-302.355
-2706.95
-300.909
-2647.32
-299.495
-2587.98
-298.112
-2528.9
-296.76
-2470.08
-295.439
-2411.52
-294.149
-2353.22
-292.889
-2295.15
-291.66
-2237.33
-290.462
-2179.74
-289.293
-2122.37
-288.155
-2065.23
-287.047
-2008.3
-285.969
-1951.58
-284.921
-1895.06
-283.903
-1838.74
-282.914
-1782.61
-281.955
-1726.66
-281.025
-1670.9
-280.124
-1615.31
-279.252
-1559.88
-278.41
-1504.62
-277.597
-1449.51
-276.812
-1394.56
-276.057
-1339.75
-275.33
-1285.08
-274.631
-1230.54
-273.962
-1176.13
-273.321
-1121.84
-272.708
-1067.67
-272.123
-1013.6
-271.567
-959.647
-271.039
-905.79
-270.54
-852.027
-270.068
-798.352
-269.624
-744.76
-269.209
-691.245
-268.821
-637.802
-268.461
-584.425
-268.129
-531.109
-267.825
-477.848
-267.548
-424.636
-267.3
-371.468
-267.079
-318.338
-266.886
-265.242
-266.722
-212.171
-266.588
-159.121
-266.488
-106.083
-266.429
-53.0457
-266.419
-266.467
-525.791
3241.23
-1051.27
3240.92
-1576.31
3239.49
-2100.76
3236.74
-2624.42
3232.4
-3147.09
3226.25
-3668.54
3218.23
-4188.59
3208.36
-4707.04
3196.62
-5223.68
3182.87
-5738.29
3166.93
-6250.59
3148.66
-6760.35
3128.07
-7267.33
3105.33
-7771.37
3080.72
-8272.25
3054.57
-8769.7
3027.05
-9263.41
2997.92
-9753.1
2966.64
-10238.6
2932.78
-10719.6
2896.2
-11196
2857.06
-11667.2
2815.5
-12132.8
2771.49
-12592.4
2724.87
-13045.6
2675.64
-13492.1
2624.01
-13931.5
2570.18
-14363.1
2514.1
-14786.3
2455.65
-15200.6
2394.94
-15605.4
2332.45
-16000.2
2268.61
-16384.2
2203.6
-16756.9
2137.43
-17117.9
2070.33
-17466.7
2002.64
-17803
1934.71
-18126.7
1866.75
-18437.4
1798.87
-18735.3
1731.2
-19020.3
1663.98
-19292.7
1597.5
-19552.7
1531.92
-19800.6
1467.23
-20036.8
1403.41
-20261.5
1340.48
-20475.1
1278.43
-20677.9
1217.22
-20870.2
1156.84
-21052.1
1097.27
-21224
1038.52
-21386
980.6
-21538.4
923.518
-21681.3
867.268
-21814.9
811.85
-21939.4
757.267
-22054.9
703.527
-22161.6
650.636
-22259.6
598.605
-22349.1
547.448
-22430.2
497.181
-22503.1
447.818
-22568
399.377
-22624.9
351.874
-22674
305.323
-22715.6
259.737
-22749.8
215.13
-22776.7