/*--------------------------------*- C++ -*----------------------------------*\
| =========                 |                                                 |
| \\      /  F ield         | OpenFOAM: The Open Source CFD Toolbox           |
|  \\    /   O peration     | Version:  2212                                  |
|   \\  /    A nd           | Website:  www.openfoam.com                      |
|    \\/     M anipulation  |                                                 |
\*---------------------------------------------------------------------------*/
FoamFile
{
    version     2.0;
    format      ascii;
    arch        "LSB;label=32;scalar=64";
    class       volScalarField;
    location    "10";
    object      p_rgh;
}
// * * * * * * * * * * * * * * * * * * * * * * * * * * * * * * * * * * * * * //

dimensions      [1 -1 -2 0 0 0 0];

internalField   nonuniform List<scalar> 
204800
(
-16.8816
-16.8731
-16.8564
-16.8317
-16.7987
-16.7575
-16.708
-16.6506
-16.5848
-16.5109
-16.4288
-16.3388
-16.2408
-16.1348
-16.0209
-15.8993
-15.77
-15.6334
-15.4894
-15.338
-15.1793
-15.0133
-14.8402
-14.6602
-14.4734
-14.2799
-14.0798
-13.8732
-13.6603
-13.4413
-13.2161
-12.9851
-12.7483
-12.5059
-12.2579
-12.0047
-11.7462
-11.4828
-11.2144
-10.9414
-10.6637
-10.3816
-10.0951
-9.80465
-9.51012
-9.21181
-8.90979
-8.60428
-8.29538
-7.98328
-7.66809
-7.35
-7.02911
-6.70562
-6.37961
-6.0513
-5.72075
-5.38818
-5.05364
-4.71736
-4.37938
-4.03992
-3.69903
-3.3569
-3.01359
-2.6693
-2.32408
-1.97809
-1.63142
-1.28421
-0.936545
-0.588551
-0.240319
0.108034
0.45642
0.804731
1.15288
1.50076
1.8483
2.1954
2.54198
2.88795
3.23323
3.57775
3.92142
4.26418
4.60596
4.94669
5.2863
5.62472
5.9619
6.29778
6.6323
6.9654
7.29704
7.62716
7.95572
8.28266
8.60796
8.93155
9.25341
9.5735
9.89177
10.2082
10.5228
10.8354
11.1461
11.4548
11.7616
12.0663
12.369
12.6696
12.9682
13.2646
13.5589
13.8511
14.1411
14.4289
14.7146
14.998
15.2792
15.5582
15.835
16.1095
16.3818
16.6518
16.9195
17.185
17.4481
17.709
17.9675
18.2238
18.4778
18.7294
18.9788
19.2258
19.4705
19.713
19.9531
20.1909
20.4264
20.6596
20.8905
21.1191
21.3454
21.5694
21.7911
22.0106
22.2278
22.4428
22.6555
22.8659
23.0741
23.2801
23.4839
23.6854
23.8848
24.082
24.2769
24.4698
24.6604
24.8489
25.0353
25.2195
25.4017
25.5817
25.7597
25.9355
26.1093
26.2811
26.4508
26.6185
26.7842
26.948
27.1097
27.2694
27.4272
27.5831
27.737
27.8891
28.0392
28.1875
28.3339
28.4784
28.6211
28.7619
28.901
29.0382
29.1737
29.3074
29.4394
29.5696
29.6981
29.8248
29.9499
30.0733
30.195
30.3151
30.4335
30.5503
30.6655
30.779
30.891
31.0014
31.1103
31.2176
31.3234
31.4276
31.5304
31.6317
31.7315
31.8298
31.9267
32.0221
32.1161
32.2087
32.2999
32.3897
32.4782
32.5652
32.651
32.7354
32.8184
32.9002
32.9807
33.0599
33.1378
33.2144
33.2899
33.364
33.437
33.5087
33.5793
33.6486
33.7168
33.7838
33.8496
33.9143
33.9779
34.0403
34.1017
34.1619
34.2211
34.2792
34.3362
34.3921
34.4471
34.501
34.5538
34.6057
34.6566
34.7065
34.7555
34.8035
34.8505
34.8966
34.9418
34.986
35.0293
35.0717
35.1132
35.1538
35.1935
35.2323
35.2703
35.3073
35.3435
35.3788
35.4133
35.447
35.4798
35.5118
35.5429
35.5733
35.6029
35.6317
35.6597
35.687
35.7135
35.7393
35.7644
35.7887
35.8124
35.8353
35.8576
35.8792
35.9001
35.9204
35.94
35.9589
35.9773
35.9949
36.012
36.0284
36.0442
36.0593
36.0739
36.0878
36.1011
36.1138
36.1259
36.1374
36.1483
36.1586
36.1682
36.1773
36.1857
36.1936
36.2008
36.2074
36.2135
36.2189
36.2237
36.2279
36.2316
36.2346
36.237
36.2388
36.24
36.2406
-16.848
-16.8398
-16.8234
-16.7989
-16.7661
-16.7253
-16.6762
-16.6191
-16.5538
-16.4806
-16.3992
-16.3099
-16.2126
-16.1074
-15.9944
-15.8735
-15.745
-15.609
-15.4654
-15.3143
-15.1559
-14.9902
-14.8173
-14.6377
-14.4513
-14.2582
-14.0584
-13.8521
-13.6395
-13.4208
-13.196
-12.9652
-12.7287
-12.4866
-12.239
-11.9862
-11.7281
-11.465
-11.197
-10.9243
-10.647
-10.3653
-10.0793
-9.78923
-9.49513
-9.19726
-8.89569
-8.59063
-8.28219
-7.97056
-7.65585
-7.33824
-7.01784
-6.69485
-6.36934
-6.04154
-5.71151
-5.37946
-5.04545
-4.7097
-4.37226
-4.03334
-3.69299
-3.35142
-3.00867
-2.66494
-2.32028
-1.97487
-1.62877
-1.28214
-0.935056
-0.587648
-0.240003
0.107759
0.455552
0.803267
1.15082
1.4981
1.84504
2.19153
2.5375
2.88287
3.22754
3.57145
3.91452
4.25667
4.59784
4.93796
5.27695
5.61477
5.95134
6.28661
6.62052
6.95302
7.28405
7.61356
7.94152
8.26786
8.59255
8.91555
9.23681
9.5563
9.87398
10.1898
10.5038
10.8158
11.126
11.4341
11.7403
12.0444
12.3465
12.6466
12.9445
13.2404
13.5341
13.8257
14.1152
14.4025
14.6876
14.9705
15.2511
15.5296
15.8058
16.0798
16.3515
16.621
16.8882
17.1531
17.4158
17.6761
17.9342
18.1899
18.4434
18.6945
18.9434
19.1899
19.4342
19.6761
19.9157
20.1531
20.3881
20.6208
20.8513
21.0794
21.3053
21.5288
21.7501
21.9692
22.1859
22.4005
22.6127
22.8227
23.0305
23.2361
23.4395
23.6406
23.8396
24.0363
24.2309
24.4233
24.6136
24.8017
24.9877
25.1716
25.3534
25.533
25.7106
25.8861
26.0596
26.231
26.4004
26.5678
26.7331
26.8965
27.0579
27.2173
27.3748
27.5304
27.684
27.8357
27.9855
28.1335
28.2796
28.4238
28.5662
28.7068
28.8455
28.9825
29.1177
29.2511
29.3828
29.5128
29.641
29.7675
29.8923
30.0154
30.1369
30.2567
30.3749
30.4914
30.6064
30.7197
30.8315
30.9417
31.0503
31.1574
31.263
31.367
31.4696
31.5706
31.6702
31.7683
31.865
31.9602
32.054
32.1464
32.2375
32.3271
32.4153
32.5022
32.5878
32.672
32.7549
32.8365
32.9168
32.9959
33.0736
33.1501
33.2254
33.2994
33.3722
33.4438
33.5142
33.5834
33.6514
33.7183
33.784
33.8485
33.912
33.9743
34.0355
34.0956
34.1547
34.2126
34.2695
34.3254
34.3802
34.434
34.4867
34.5385
34.5893
34.6391
34.688
34.7358
34.7828
34.8288
34.8738
34.918
34.9612
35.0035
35.0449
35.0854
35.1251
35.1638
35.2016
35.2386
35.2747
35.31
35.3444
35.378
35.4107
35.4426
35.4738
35.5041
35.5336
35.5623
35.5903
35.6175
35.644
35.6697
35.6947
35.719
35.7426
35.7655
35.7878
35.8093
35.8302
35.8504
35.87
35.8889
35.9072
35.9248
35.9418
35.9582
35.9739
35.9891
36.0036
36.0175
36.0308
36.0435
36.0555
36.067
36.0778
36.0881
36.0977
36.1068
36.1152
36.123
36.1302
36.1369
36.1429
36.1483
36.1531
36.1573
36.1609
36.1639
36.1663
36.1681
36.1693
36.1699
-16.8375
-16.8294
-16.8132
-16.7889
-16.7565
-16.7162
-16.6678
-16.6113
-16.5468
-16.4744
-16.3941
-16.3057
-16.2095
-16.1055
-15.9937
-15.8741
-15.7467
-15.6116
-15.4689
-15.3186
-15.1609
-14.9959
-14.8237
-14.6443
-14.458
-14.2648
-14.0649
-13.8585
-13.6457
-13.4269
-13.202
-12.9711
-12.7344
-12.4922
-12.2444
-11.9913
-11.733
-11.4698
-11.2015
-10.9287
-10.6512
-10.3693
-10.0831
-9.79284
-9.49855
-9.20049
-8.89874
-8.5935
-8.28488
-7.97307
-7.65818
-7.34041
-7.01984
-6.69669
-6.37103
-6.04307
-5.71289
-5.3807
-5.04656
-4.71067
-4.37311
-4.03407
-3.6936
-3.35192
-3.00907
-2.66523
-2.32048
-1.97498
-1.6288
-1.28208
-0.934925
-0.587448
-0.23974
0.108081
0.455927
0.80369
1.15128
1.49861
1.84557
2.1921
2.53809
2.88347
3.22816
3.57208
3.91515
4.2573
4.59847
4.93858
5.27756
5.61536
5.95191
6.28716
6.62104
6.95351
7.2845
7.61398
7.9419
8.2682
8.59284
8.91579
9.237
9.55643
9.87405
10.1898
10.5037
10.8157
11.1258
11.4338
11.7399
12.044
12.346
12.646
12.9439
13.2397
13.5333
13.8248
14.1142
14.4014
14.6864
14.9691
15.2497
15.5281
15.8042
16.0781
16.3497
16.6191
16.8862
17.151
17.4135
17.6738
17.9317
18.1874
18.4407
18.6918
18.9405
19.1869
19.4311
19.6729
19.9124
20.1496
20.3846
20.6172
20.8475
21.0755
21.3013
21.5247
21.7459
21.9649
22.1815
22.3959
22.6081
22.818
23.0257
23.2312
23.4344
23.6355
23.8343
24.031
24.2255
24.4178
24.608
24.796
24.9819
25.1657
25.3473
25.5269
25.7044
25.8798
26.0532
26.2245
26.3938
26.5611
26.7263
26.8896
27.0509
27.2103
27.3677
27.5231
27.6767
27.8283
27.978
28.1259
28.2719
28.4161
28.5584
28.6989
28.8376
28.9745
29.1096
29.2429
29.3745
29.5044
29.6325
29.759
29.8837
30.0068
30.1282
30.2479
30.366
30.4825
30.5974
30.7107
30.8223
30.9325
31.041
31.1481
31.2536
31.3575
31.46
31.561
31.6605
31.7586
31.8552
31.9504
32.0442
32.1365
32.2275
32.317
32.4052
32.4921
32.5776
32.6618
32.7446
32.8262
32.9064
32.9854
33.0631
33.1396
33.2148
33.2888
33.3615
33.4331
33.5034
33.5726
33.6406
33.7074
33.773
33.8376
33.901
33.9633
34.0244
34.0845
34.1435
34.2014
34.2583
34.3141
34.3689
34.4226
34.4754
34.5271
34.5779
34.6277
34.6765
34.7243
34.7712
34.8172
34.8622
34.9064
34.9496
34.9918
35.0332
35.0737
35.1133
35.152
35.1898
35.2268
35.2629
35.2981
35.3325
35.3661
35.3988
35.4307
35.4618
35.4921
35.5216
35.5503
35.5783
35.6055
35.6319
35.6576
35.6826
35.7069
35.7305
35.7534
35.7756
35.7971
35.818
35.8382
35.8578
35.8767
35.8949
35.9126
35.9296
35.9459
35.9617
35.9768
35.9913
36.0052
36.0185
36.0312
36.0432
36.0547
36.0655
36.0758
36.0854
36.0944
36.1028
36.1107
36.1179
36.1245
36.1305
36.1359
36.1407
36.1449
36.1485
36.1515
36.154
36.1558
36.157
36.1576
-16.8007
-16.7927
-16.7767
-16.7528
-16.7208
-16.6809
-16.633
-16.5772
-16.5135
-16.4419
-16.3625
-16.2752
-16.1801
-16.0773
-15.9668
-15.8487
-15.7229
-15.5895
-15.4486
-15.3003
-15.1445
-14.9815
-14.8112
-14.6336
-14.4487
-14.2568
-14.058
-13.8525
-13.6404
-13.4218
-13.197
-12.9662
-12.7294
-12.4873
-12.2396
-11.9866
-11.7282
-11.465
-11.1967
-10.9239
-10.6464
-10.3646
-10.0784
-9.78815
-9.4939
-9.19588
-8.89419
-8.58901
-8.28046
-7.96873
-7.65393
-7.33626
-7.01579
-6.69276
-6.36722
-6.0394
-5.70936
-5.37732
-5.04333
-4.70763
-4.37024
-4.03138
-3.69112
-3.34964
-3.007
-2.66339
-2.31887
-1.97361
-1.62768
-1.28123
-0.934338
-0.587137
-0.239713
0.107816
0.455362
0.802817
1.15009
1.4971
1.84374
2.18992
2.53557
2.88061
3.22494
3.5685
3.9112
4.25298
4.59377
4.9335
5.2721
5.6095
5.94566
6.2805
6.61398
6.94604
7.27663
7.6057
7.93319
8.25907
8.58329
8.90581
9.2266
9.5456
9.86279
10.1781
10.4916
10.8031
11.1128
11.4204
11.726
12.0297
12.3312
12.6308
12.9282
13.2235
13.5167
13.8078
14.0967
14.3834
14.668
14.9503
15.2305
15.5084
15.784
16.0575
16.3287
16.5976
16.8642
17.1286
17.3907
17.6505
17.908
18.1632
18.4161
18.6667
18.9151
19.1611
19.4048
19.6462
19.8853
20.1221
20.3566
20.5888
20.8187
21.0463
21.2717
21.4948
21.7156
21.9341
22.1504
22.3644
22.5762
22.7857
22.993
23.1981
23.401
23.6017
23.8002
23.9965
24.1906
24.3826
24.5724
24.7601
24.9456
25.1291
25.3104
25.4896
25.6668
25.8419
26.0149
26.1859
26.3549
26.5219
26.6868
26.8498
27.0108
27.1698
27.3269
27.4821
27.6354
27.7867
27.9362
28.0837
28.2295
28.3733
28.5154
28.6556
28.794
28.9307
29.0655
29.1986
29.33
29.4596
29.5875
29.7137
29.8382
29.961
30.0822
30.2017
30.3196
30.4358
30.5505
30.6635
30.775
30.8849
30.9933
31.1001
31.2054
31.3091
31.4114
31.5122
31.6116
31.7094
31.8058
31.9008
31.9944
32.0866
32.1774
32.2668
32.3548
32.4415
32.5268
32.6108
32.6935
32.7749
32.855
32.9338
33.0114
33.0877
33.1627
33.2366
33.3092
33.3806
33.4508
33.5198
33.5877
33.6543
33.7199
33.7843
33.8475
33.9097
33.9708
34.0307
34.0896
34.1474
34.2041
34.2598
34.3145
34.3682
34.4208
34.4725
34.5231
34.5728
34.6215
34.6693
34.7161
34.7619
34.8069
34.8509
34.894
34.9362
34.9775
35.0179
35.0574
35.096
35.1338
35.1707
35.2067
35.2419
35.2762
35.3097
35.3423
35.3742
35.4052
35.4354
35.4649
35.4935
35.5214
35.5486
35.575
35.6007
35.6256
35.6499
35.6734
35.6962
35.7184
35.7399
35.7607
35.7809
35.8004
35.8192
35.8375
35.8551
35.872
35.8884
35.9041
35.9192
35.9336
35.9475
35.9608
35.9734
35.9854
35.9969
36.0077
36.0179
36.0275
36.0365
36.0449
36.0527
36.0599
36.0665
36.0725
36.0779
36.0827
36.0869
36.0905
36.0935
36.0959
36.0977
36.0989
36.0995
-16.7756
-16.7677
-16.7519
-16.7283
-16.6966
-16.6573
-16.6099
-16.5548
-16.4918
-16.4211
-16.3426
-16.2564
-16.1625
-16.0609
-15.9517
-15.8349
-15.7105
-15.5786
-15.4391
-15.2924
-15.1382
-14.9768
-14.8083
-14.6326
-14.4498
-14.2599
-14.0632
-13.8596
-13.6491
-13.4319
-13.2082
-12.9781
-12.7418
-12.4997
-12.2517
-11.9984
-11.7397
-11.4762
-11.2075
-10.9343
-10.6564
-10.3741
-10.0875
-9.79685
-9.50219
-9.20376
-8.90167
-8.59607
-8.28713
-7.975
-7.65981
-7.34176
-7.02092
-6.69752
-6.37162
-6.04346
-5.71307
-5.38071
-5.0464
-4.71039
-4.37269
-4.03355
-3.693
-3.35126
-3.00836
-2.6645
-2.31975
-1.97426
-1.62811
-1.28145
-0.934362
-0.586976
-0.239376
0.108317
0.456017
0.803616
1.15103
1.49815
1.84491
2.1912
2.53694
2.88206
3.22647
3.57009
3.91285
4.25468
4.59551
4.93527
5.27389
5.61131
5.94747
6.28232
6.61579
6.94783
7.2784
7.60744
7.9349
8.26073
8.58491
8.90737
9.22809
9.54703
9.86415
10.1794
10.4928
10.8042
11.1138
11.4213
11.7268
12.0304
12.3318
12.6312
12.9285
13.2237
13.5168
13.8077
14.0965
14.3831
14.6675
14.9497
15.2296
15.5074
15.7829
16.0562
16.3272
16.5959
16.8624
17.1266
17.3885
17.6481
17.9055
18.1605
18.4132
18.6637
18.9118
19.1576
19.4012
19.6424
19.8813
20.1179
20.3522
20.5843
20.814
21.0414
21.2666
21.4895
21.7101
21.9285
22.1446
22.3584
22.57
22.7794
22.9865
23.1914
23.3941
23.5946
23.7929
23.9891
24.183
24.3748
24.5645
24.752
24.9374
25.1206
25.3018
25.4809
25.6579
25.8328
26.0057
26.1765
26.3454
26.5122
26.677
26.8398
27.0006
27.1595
27.3165
27.4715
27.6246
27.7758
27.9251
28.0725
28.2181
28.3619
28.5038
28.6438
28.7821
28.9186
29.0534
29.1863
29.3175
29.447
29.5748
29.7008
29.8252
29.9479
30.069
30.1883
30.3061
30.4222
30.5368
30.6497
30.7611
30.8709
30.9791
31.0858
31.191
31.2947
31.3968
31.4975
31.5968
31.6945
31.7909
31.8857
31.9792
32.0713
32.162
32.2513
32.3392
32.4258
32.511
32.595
32.6776
32.7589
32.8389
32.9176
32.9951
33.0713
33.1463
33.22
33.2926
33.3639
33.434
33.503
33.5708
33.6374
33.7028
33.7672
33.8304
33.8925
33.9534
34.0133
34.0722
34.1299
34.1866
34.2422
34.2968
34.3504
34.403
34.4546
34.5052
34.5548
34.6035
34.6512
34.698
34.7438
34.7887
34.8327
34.8757
34.9179
34.9591
34.9995
35.0389
35.0775
35.1152
35.1521
35.188
35.2232
35.2574
35.2909
35.3235
35.3553
35.3863
35.4165
35.4459
35.4746
35.5025
35.5296
35.556
35.5816
35.6065
35.6307
35.6543
35.6771
35.6992
35.7207
35.7415
35.7616
35.7811
35.8
35.8182
35.8357
35.8527
35.869
35.8847
35.8998
35.9142
35.9281
35.9413
35.9539
35.966
35.9774
35.9882
35.9984
36.008
36.017
36.0254
36.0332
36.0404
36.047
36.053
36.0583
36.0631
36.0673
36.0709
36.0739
36.0763
36.0781
36.0793
36.0799
-16.7322
-16.7244
-16.7087
-16.6853
-16.6541
-16.6151
-16.5683
-16.5139
-16.4517
-16.3818
-16.3041
-16.2189
-16.1261
-16.0255
-15.9176
-15.8021
-15.6792
-15.549
-15.4113
-15.2664
-15.1141
-14.9547
-14.7881
-14.6145
-14.4336
-14.246
-14.0515
-13.8502
-13.642
-13.4274
-13.206
-12.9783
-12.7441
-12.5036
-12.2569
-12.0045
-11.7461
-11.4826
-11.2138
-10.9403
-10.6622
-10.3796
-10.0927
-9.80174
-9.50675
-9.20799
-8.9056
-8.5997
-8.29048
-7.97808
-7.66261
-7.34431
-7.02321
-6.69959
-6.37346
-6.04509
-5.7145
-5.38196
-5.04747
-4.7113
-4.37346
-4.03419
-3.69352
-3.35167
-3.00868
-2.66475
-2.31992
-1.97438
-1.6282
-1.28151
-0.934413
-0.58703
-0.239446
0.108218
0.455877
0.803421
1.15077
1.49781
1.84447
2.19066
2.53629
2.88128
3.22555
3.56902
3.91163
4.25328
4.59393
4.9335
5.27192
5.60914
5.94508
6.2797
6.61294
6.94474
7.27506
7.60384
7.93103
8.2566
8.5805
8.90268
9.22311
9.54175
9.85856
10.1735
10.4866
10.7977
11.1069
11.4141
11.7193
12.0225
12.3236
12.6227
12.9196
13.2144
13.5072
13.7977
14.0861
14.3723
14.6563
14.9382
15.2178
15.4951
15.7702
16.0431
16.3137
16.5821
16.8482
17.112
17.3735
17.6328
17.8897
18.1443
18.3967
18.6467
18.8945
19.1399
19.383
19.6239
19.8624
20.0987
20.3326
20.5642
20.7936
21.0207
21.2455
21.468
21.6882
21.9062
22.1219
22.3354
22.5467
22.7557
22.9624
23.167
23.3694
23.5695
23.7675
23.9633
24.1569
24.3484
24.5377
24.7249
24.9099
25.0929
25.2737
25.4525
25.6291
25.8038
25.9763
26.1469
26.3154
26.4819
26.6464
26.8089
26.9694
27.128
27.2847
27.4394
27.5922
27.7432
27.8922
28.0394
28.1847
28.3281
28.4698
28.6096
28.7476
28.8839
29.0183
29.151
29.282
29.4112
29.5388
29.6646
29.7887
29.9112
30.032
30.1512
30.2687
30.3846
30.4989
30.6116
30.7228
30.8324
30.9404
31.0469
31.1519
31.2553
31.3573
31.4578
31.5568
31.6544
31.7505
31.8453
31.9385
32.0304
32.1209
32.2101
32.2978
32.3842
32.4693
32.5531
32.6355
32.7167
32.7965
32.8751
32.9524
33.0285
33.1033
33.1769
33.2493
33.3205
33.3905
33.4593
33.5269
33.5934
33.6587
33.7229
33.786
33.848
33.9088
33.9686
34.0273
34.0849
34.1415
34.197
34.2515
34.305
34.3575
34.409
34.4595
34.509
34.5576
34.6052
34.6518
34.6976
34.7424
34.7862
34.8292
34.8713
34.9124
34.9527
34.9921
35.0306
35.0682
35.105
35.1409
35.1759
35.2101
35.2435
35.2761
35.3078
35.3387
35.3689
35.3982
35.4268
35.4546
35.4817
35.508
35.5336
35.5585
35.5827
35.6061
35.6289
35.651
35.6724
35.6932
35.7133
35.7327
35.7515
35.7697
35.7872
35.8041
35.8204
35.8361
35.8511
35.8656
35.8794
35.8926
35.9052
35.9172
35.9286
35.9393
35.9495
35.9591
35.9681
35.9765
35.9842
35.9914
35.998
36.004
36.0093
36.0141
36.0183
36.0219
36.0249
36.0273
36.0291
36.0303
36.0309
-16.6935
-16.6857
-16.6703
-16.6471
-16.6163
-16.5777
-16.5315
-16.4777
-16.4162
-16.3472
-16.2705
-16.1864
-16.0945
-15.9953
-15.8885
-15.7744
-15.6528
-15.5239
-15.3877
-15.2444
-15.0938
-14.9361
-14.7712
-14.5995
-14.4207
-14.2351
-14.0427
-13.8436
-13.6377
-13.4254
-13.2063
-12.9809
-12.7491
-12.5111
-12.2668
-12.0166
-11.76
-11.4979
-11.2299
-10.9567
-10.6784
-10.3954
-10.1078
-9.81629
-9.52072
-9.22132
-8.9183
-8.61171
-8.30185
-7.98881
-7.67272
-7.35379
-7.03208
-6.70787
-6.38114
-6.05221
-5.72106
-5.38798
-5.05296
-4.71628
-4.37793
-4.03819
-3.69704
-3.35474
-3.0113
-2.66695
-2.32171
-1.97578
-1.62921
-1.28217
-0.934723
-0.58701
-0.23911
0.108853
0.456796
0.804607
1.15221
1.49949
1.84637
2.19276
2.53859
2.88375
3.22819
3.57181
3.91456
4.25634
4.5971
4.93676
5.27527
5.61256
5.94856
6.28323
6.61651
6.94834
7.27867
7.60746
7.93465
8.2602
8.58407
8.90622
9.2266
9.54519
9.86194
10.1768
10.4898
10.8009
11.1099
11.417
11.7221
12.0252
12.3262
12.6251
12.9219
13.2166
13.5091
13.7995
14.0878
14.3738
14.6576
14.9393
15.2187
15.4958
15.7708
16.0434
16.3139
16.582
16.8479
17.1115
17.3728
17.6318
17.8885
18.1429
18.395
18.6448
18.8923
19.1375
19.3804
19.621
19.8593
20.0953
20.329
20.5604
20.7896
21.0164
21.241
21.4632
21.6833
21.901
22.1165
22.3297
22.5408
22.7495
22.9561
23.1604
23.3625
23.5625
23.7602
23.9558
24.1492
24.3404
24.5295
24.7164
24.9013
25.084
25.2646
25.4432
25.6196
25.794
25.9664
26.1367
26.305
26.4713
26.6356
26.7979
26.9583
27.1167
27.2731
27.4276
27.5803
27.731
27.8798
28.0268
28.1719
28.3152
28.4566
28.5963
28.7341
28.8702
29.0045
29.137
29.2678
29.3969
29.5242
29.6499
29.7738
29.8961
30.0168
30.1358
30.2531
30.3689
30.483
30.5956
30.7066
30.816
30.9239
31.0302
31.1351
31.2384
31.3402
31.4406
31.5395
31.6369
31.7329
31.8275
31.9206
32.0124
32.1028
32.1918
32.2794
32.3657
32.4507
32.5343
32.6166
32.6976
32.7774
32.8559
32.9331
33.009
33.0837
33.1572
33.2295
33.3006
33.3705
33.4392
33.5067
33.5731
33.6384
33.7025
33.7654
33.8273
33.8881
33.9478
34.0064
34.0639
34.1204
34.1759
34.2303
34.2837
34.3361
34.3875
34.438
34.4874
34.5359
34.5834
34.63
34.6757
34.7204
34.7642
34.8071
34.8491
34.8902
34.9304
34.9697
35.0082
35.0457
35.0824
35.1183
35.1533
35.1875
35.2208
35.2533
35.285
35.3159
35.346
35.3753
35.4038
35.4316
35.4586
35.4849
35.5105
35.5353
35.5595
35.5829
35.6057
35.6277
35.6491
35.6698
35.6899
35.7093
35.7281
35.7462
35.7638
35.7806
35.7969
35.8125
35.8275
35.842
35.8557
35.8689
35.8815
35.8935
35.9048
35.9156
35.9258
35.9353
35.9443
35.9527
35.9604
35.9676
35.9742
35.9801
35.9855
35.9903
35.9944
35.998
36.001
36.0034
36.0052
36.0064
36.007
-16.6416
-16.6339
-16.6187
-16.5957
-16.5652
-16.5271
-16.4815
-16.4282
-16.3674
-16.299
-16.2233
-16.1399
-16.0492
-15.951
-15.8455
-15.7326
-15.6125
-15.4851
-15.3505
-15.2088
-15.06
-14.9041
-14.7412
-14.5714
-14.3947
-14.2111
-14.0208
-13.8239
-13.6204
-13.4103
-13.1938
-12.971
-12.7417
-12.5062
-12.2645
-12.0169
-11.7631
-11.5036
-11.2382
-10.967
-10.6903
-10.4082
-10.1211
-9.82947
-9.53344
-9.2335
-8.92992
-8.62276
-8.31231
-7.99865
-7.68194
-7.36244
-7.04014
-6.71537
-6.38809
-6.05864
-5.72696
-5.39339
-5.05787
-4.72074
-4.38193
-4.04176
-3.7002
-3.35751
-3.01369
-2.66898
-2.3234
-1.97715
-1.63028
-1.28295
-0.935239
-0.58728
-0.23915
0.109022
0.457158
0.805143
1.1529
1.50032
1.84732
2.19382
2.53973
2.88497
3.22946
3.57312
3.91589
4.25768
4.59843
4.93807
5.27654
5.61378
5.94973
6.28432
6.61751
6.94924
7.27946
7.60812
7.93518
8.26058
8.5843
8.90628
9.22648
9.54488
9.86143
10.1761
10.4889
10.7997
11.1086
11.4154
11.7202
12.023
12.3238
12.6224
12.9189
13.2133
13.5056
13.7957
14.0836
14.3693
14.6528
14.9341
15.2132
15.49
15.7646
16.0369
16.307
16.5748
16.8403
17.1035
17.3645
17.6231
17.8795
18.1335
18.3853
18.6347
18.8819
19.1267
19.3692
19.6095
19.8474
20.083
20.3164
20.5474
20.7762
21.0027
21.2269
21.4488
21.6684
21.8858
22.101
22.3139
22.5245
22.7329
22.9391
23.1431
23.3449
23.5445
23.7419
23.9371
24.1302
24.3211
24.5098
24.6964
24.881
25.0634
25.2437
25.4219
25.598
25.7721
25.9441
26.1142
26.2821
26.4481
26.6121
26.7741
26.9342
27.0923
27.2484
27.4027
27.555
27.7055
27.854
28.0007
28.1455
28.2886
28.4297
28.5691
28.7067
28.8425
28.9765
29.1088
29.2393
29.3681
29.4952
29.6206
29.7444
29.8664
29.9868
30.1056
30.2227
30.3382
30.4521
30.5645
30.6753
30.7845
30.8921
30.9983
31.1029
31.206
31.3076
31.4078
31.5065
31.6037
31.6995
31.7939
31.8869
31.9784
32.0686
32.1574
32.2449
32.331
32.4158
32.4993
32.5814
32.6623
32.7418
32.8201
32.8972
32.973
33.0475
33.1209
33.193
33.2639
33.3337
33.4022
33.4696
33.5359
33.601
33.665
33.7278
33.7896
33.8502
33.9098
33.9683
34.0257
34.0821
34.1374
34.1917
34.245
34.2973
34.3486
34.3989
34.4483
34.4966
34.5441
34.5906
34.6361
34.6808
34.7245
34.7673
34.8092
34.8502
34.8903
34.9295
34.9679
35.0053
35.042
35.0777
35.1127
35.1467
35.18
35.2124
35.2441
35.2749
35.3049
35.3342
35.3627
35.3904
35.4174
35.4436
35.4691
35.4939
35.518
35.5414
35.5641
35.5861
35.6074
35.6281
35.6481
35.6675
35.6863
35.7044
35.7218
35.7387
35.7549
35.7705
35.7855
35.7998
35.8136
35.8268
35.8393
35.8512
35.8626
35.8733
35.8835
35.893
35.9019
35.9103
35.918
35.9252
35.9317
35.9377
35.943
35.9478
35.952
35.9555
35.9585
35.9609
35.9627
35.9639
35.9645
-16.5904
-16.5829
-16.5677
-16.545
-16.5149
-16.4772
-16.432
-16.3793
-16.3192
-16.2517
-16.1767
-16.0944
-16.0047
-15.9078
-15.8033
-15.6917
-15.5728
-15.4469
-15.3136
-15.1735
-15.0262
-14.872
-14.7109
-14.5429
-14.3681
-14.1866
-13.9984
-13.8036
-13.6022
-13.3944
-13.1802
-12.9597
-12.7329
-12.4998
-12.2606
-12.0155
-11.7643
-11.5073
-11.2445
-10.9759
-10.7018
-10.4222
-10.1373
-9.84697
-9.55175
-9.2519
-8.94788
-8.63993
-8.32871
-8.01424
-7.69666
-7.3763
-7.05311
-6.7275
-6.39938
-6.06913
-5.73664
-5.40231
-5.06603
-4.72816
-4.38864
-4.04777
-3.70553
-3.36218
-3.01772
-2.67239
-2.32621
-1.97938
-1.63195
-1.28409
-0.93586
-0.587406
-0.238802
0.109823
0.458392
0.806788
1.15493
1.50272
1.85008
2.19691
2.54313
2.88866
3.23342
3.57734
3.92034
4.26234
4.6033
4.94312
5.28176
5.61915
5.95522
6.28994
6.62323
6.95504
7.28533
7.61405
7.94115
8.26659
8.59031
8.9123
9.23249
9.55087
9.86739
10.182
10.4947
10.8055
11.1142
11.421
11.7257
12.0284
12.329
12.6275
12.9239
13.2181
13.5102
13.8001
14.0879
14.3734
14.6567
14.9378
15.2167
15.4933
15.7677
16.0398
16.3096
16.5772
16.8424
17.1054
17.3661
17.6245
17.8806
18.1344
18.3858
18.635
18.8819
19.1265
19.3687
19.6087
19.8463
20.0817
20.3147
20.5455
20.774
21.0002
21.2241
21.4457
21.6651
21.8822
22.0971
22.3097
22.5201
22.7282
22.9342
23.1379
23.3394
23.5387
23.7358
23.9308
24.1236
24.3142
24.5027
24.689
24.8733
25.0554
25.2355
25.4134
25.5893
25.7631
25.9349
26.1047
26.2724
26.4381
26.6019
26.7637
26.9235
27.0813
27.2372
27.3912
27.5433
27.6935
27.8419
27.9883
28.1329
28.2757
28.4167
28.5558
28.6932
28.8287
28.9626
29.0946
29.2249
29.3535
29.4804
29.6056
29.7292
29.851
29.9712
30.0898
30.2067
30.322
30.4358
30.5479
30.6585
30.7675
30.875
30.981
31.0854
31.1883
31.2898
31.3898
31.4883
31.5854
31.681
31.7752
31.868
31.9594
32.0495
32.1381
32.2255
32.3114
32.396
32.4794
32.5614
32.6421
32.7215
32.7997
32.8766
32.9523
33.0267
33.0999
33.1719
33.2427
33.3123
33.3808
33.448
33.5142
33.5791
33.643
33.7057
33.7674
33.8279
33.8874
33.9458
34.0031
34.0594
34.1146
34.1688
34.222
34.2742
34.3254
34.3757
34.4249
34.4732
34.5206
34.567
34.6124
34.657
34.7006
34.7433
34.7851
34.8261
34.8661
34.9052
34.9435
34.9809
35.0175
35.0532
35.088
35.1221
35.1553
35.1876
35.2192
35.25
35.28
35.3092
35.3376
35.3653
35.3922
35.4184
35.4439
35.4686
35.4927
35.516
35.5387
35.5607
35.582
35.6026
35.6226
35.642
35.6607
35.6787
35.6962
35.713
35.7292
35.7447
35.7597
35.774
35.7877
35.8009
35.8134
35.8253
35.8366
35.8473
35.8575
35.867
35.8759
35.8842
35.892
35.8991
35.9056
35.9116
35.9169
35.9217
35.9258
35.9294
35.9324
35.9347
35.9365
35.9377
35.9383
-16.5288
-16.5214
-16.5064
-16.4841
-16.4542
-16.417
-16.3722
-16.3202
-16.2607
-16.1938
-16.1197
-16.0382
-15.9495
-15.8535
-15.7503
-15.64
-15.5225
-15.3979
-15.2662
-15.1275
-14.9819
-14.8293
-14.67
-14.5039
-14.331
-14.1515
-13.9654
-13.7727
-13.5735
-13.3679
-13.1561
-12.938
-12.7136
-12.483
-12.2463
-12.0037
-11.7552
-11.5009
-11.2408
-10.9751
-10.7036
-10.4268
-10.1447
-9.85717
-9.56441
-9.26658
-8.96377
-8.6565
-8.34514
-8.03007
-7.7117
-7.39054
-7.0665
-6.74005
-6.41106
-6.07997
-5.74666
-5.41153
-5.07447
-4.73585
-4.39558
-4.05401
-3.71107
-3.36706
-3.02195
-2.676
-2.32922
-1.98182
-1.63384
-1.28545
-0.936712
-0.587778
-0.238717
0.110341
0.459319
0.808102
1.15661
1.50474
1.85242
2.19954
2.54603
2.89181
3.23681
3.58093
3.92412
4.2663
4.6074
4.94736
5.2861
5.62358
5.95974
6.29451
6.62784
6.95968
7.28998
7.61868
7.94576
8.27116
8.59483
8.91674
9.23686
9.55514
9.87154
10.186
10.4986
10.8092
11.1178
11.4244
11.729
12.0315
12.3318
12.6301
12.9263
13.2203
13.5121
13.8018
14.0893
14.3745
14.6576
14.9384
15.2169
15.4932
15.7673
16.0391
16.3086
16.5758
16.8407
17.1034
17.3637
17.6218
17.8775
18.131
18.3821
18.6309
18.8774
19.1216
19.3635
19.6031
19.8404
20.0754
20.3081
20.5385
20.7666
20.9925
21.216
21.4373
21.6563
21.8731
22.0876
22.2999
22.5099
22.7177
22.9232
23.1266
23.3278
23.5267
23.7235
23.9181
24.1106
24.3009
24.489
24.675
24.8589
25.0407
25.2204
25.3981
25.5736
25.7471
25.9186
26.088
26.2555
26.4209
26.5843
26.7458
26.9053
27.0628
27.2184
27.3721
27.5239
27.6738
27.8219
27.968
28.1123
28.2548
28.3955
28.5344
28.6715
28.8068
28.9403
29.0721
29.2021
29.3305
29.4571
29.582
29.7053
29.8269
29.9469
30.0652
30.1819
30.297
30.4104
30.5224
30.6327
30.7415
30.8488
30.9545
31.0587
31.1614
31.2627
31.3624
31.4607
31.5576
31.653
31.7471
31.8397
31.9309
32.0207
32.1092
32.1963
32.2821
32.3665
32.4497
32.5315
32.612
32.6913
32.7693
32.846
32.9215
32.9958
33.0688
33.1407
33.2113
33.2808
33.349
33.4162
33.4822
33.547
33.6107
33.6733
33.7348
33.7952
33.8545
33.9128
33.97
34.0261
34.0813
34.1354
34.1884
34.2405
34.2916
34.3417
34.3909
34.4391
34.4863
34.5326
34.5779
34.6224
34.6659
34.7085
34.7502
34.7911
34.831
34.87
34.9082
34.9456
34.982
35.0176
35.0524
35.0864
35.1195
35.1518
35.1833
35.214
35.2439
35.273
35.3014
35.329
35.3559
35.382
35.4075
35.4321
35.4561
35.4794
35.502
35.524
35.5452
35.5658
35.5858
35.6051
35.6237
35.6418
35.6592
35.6759
35.6921
35.7076
35.7225
35.7368
35.7505
35.7636
35.7761
35.788
35.7993
35.81
35.82
35.8295
35.8384
35.8467
35.8544
35.8616
35.8681
35.874
35.8793
35.8841
35.8882
35.8918
35.8947
35.8971
35.8989
35.9001
35.9007
-16.4655
-16.4581
-16.4434
-16.4212
-16.3917
-16.3548
-16.3107
-16.2593
-16.2005
-16.1343
-16.0609
-15.9804
-15.8926
-15.7977
-15.6956
-15.5864
-15.4702
-15.3469
-15.2166
-15.0794
-14.9353
-14.7844
-14.6268
-14.4624
-14.2913
-14.1137
-13.9295
-13.7388
-13.5417
-13.3383
-13.1286
-12.9126
-12.6905
-12.4624
-12.2281
-11.988
-11.742
-11.4903
-11.2329
-10.9698
-10.7012
-10.4271
-10.1476
-9.86279
-9.57279
-9.27774
-8.97764
-8.67273
-8.36286
-8.04863
-7.73035
-7.40856
-7.08356
-6.75613
-6.42611
-6.09398
-5.75961
-5.42348
-5.08541
-4.74583
-4.40461
-4.06212
-3.71827
-3.37338
-3.02742
-2.68065
-2.33306
-1.98488
-1.63615
-1.28703
-0.937599
-0.587992
-0.238285
0.111393
0.460966
0.810315
1.15937
1.50801
1.85618
2.20377
2.5507
2.8969
3.24229
3.58678
3.93032
4.27282
4.61422
4.95445
5.29346
5.63117
5.96754
6.3025
6.63601
6.96801
7.29844
7.62727
7.95445
8.27993
8.60367
8.92563
9.24578
9.56407
9.88048
10.195
10.5075
10.8181
11.1266
11.4331
11.7376
12.04
12.3403
12.6384
12.9344
13.2283
13.52
13.8095
14.0968
14.3818
14.6647
14.9453
15.2236
15.4997
15.7735
16.045
16.3143
16.5812
16.8459
17.1083
17.3684
17.6261
17.8816
18.1347
18.3856
18.6341
18.8803
19.1242
19.3658
19.6051
19.8421
20.0768
20.3092
20.5393
20.7671
20.9926
21.2158
21.4368
21.6555
21.8719
22.0861
22.2981
22.5078
22.7153
22.9205
23.1236
23.3244
23.5231
23.7196
23.9139
24.106
24.296
24.4838
24.6696
24.8532
25.0347
25.2141
25.3914
25.5667
25.7399
25.9111
26.0802
26.2473
26.4125
26.5756
26.7368
26.896
27.0533
27.2086
27.362
27.5136
27.6632
27.811
27.9569
28.1009
28.2432
28.3836
28.5222
28.659
28.7941
28.9273
29.0589
29.1887
29.3168
29.4432
29.5679
29.6909
29.8123
29.932
30.0501
30.1666
30.2814
30.3947
30.5064
30.6165
30.7251
30.8322
30.9377
31.0417
31.1442
31.2452
31.3448
31.4429
31.5396
31.6348
31.7287
31.8211
31.9121
32.0018
32.0901
32.177
32.2626
32.3469
32.4299
32.5115
32.5919
32.671
32.7488
32.8254
32.9007
32.9749
33.0477
33.1194
33.1899
33.2593
33.3274
33.3944
33.4602
33.5249
33.5885
33.651
33.7124
33.7726
33.8318
33.89
33.9471
34.0031
34.0581
34.1121
34.1651
34.217
34.268
34.318
34.3671
34.4151
34.4623
34.5085
34.5537
34.5981
34.6415
34.684
34.7256
34.7664
34.8062
34.8452
34.8833
34.9205
34.9569
34.9924
35.0271
35.061
35.0941
35.1263
35.1577
35.1884
35.2182
35.2473
35.2756
35.3032
35.33
35.3561
35.3815
35.4061
35.43
35.4533
35.4759
35.4977
35.519
35.5395
35.5594
35.5787
35.5973
35.6153
35.6326
35.6494
35.6655
35.681
35.6958
35.7101
35.7238
35.7368
35.7493
35.7612
35.7724
35.7831
35.7931
35.8026
35.8115
35.8198
35.8275
35.8345
35.841
35.847
35.8523
35.857
35.8611
35.8647
35.8676
35.87
35.8718
35.873
35.8735
-16.3938
-16.3864
-16.3718
-16.3499
-16.3207
-16.2842
-16.2405
-16.1896
-16.1314
-16.066
-15.9934
-15.9137
-15.8269
-15.733
-15.632
-15.524
-15.409
-15.2871
-15.1582
-15.0224
-14.88
-14.7306
-14.5747
-14.4119
-14.2427
-14.0669
-13.8847
-13.696
-13.5009
-13.2997
-13.0921
-12.8784
-12.6586
-12.4328
-12.2011
-11.9634
-11.72
-11.4708
-11.216
-10.9556
-10.6897
-10.4183
-10.1416
-9.85965
-9.57253
-9.28035
-8.9831
-8.68101
-8.37395
-8.06232
-7.74608
-7.42544
-7.10088
-6.77292
-6.44201