/*--------------------------------*- C++ -*----------------------------------*\
| =========                 |                                                 |
| \\      /  F ield         | OpenFOAM: The Open Source CFD Toolbox           |
|  \\    /   O peration     | Version:  2212                                  |
|   \\  /    A nd           | Website:  www.openfoam.com                      |
|    \\/     M anipulation  |                                                 |
\*---------------------------------------------------------------------------*/
FoamFile
{
    version     2.0;
    format      ascii;
    arch        "LSB;label=32;scalar=64";
    class       volScalarField;
    location    "10";
    object      rho_0;
}
// * * * * * * * * * * * * * * * * * * * * * * * * * * * * * * * * * * * * * //

dimensions      [1 -3 0 0 0 0 0];

internalField   nonuniform List<scalar> 
204800
(
1.64647
1.64647
1.64648
1.64648
1.64648
1.64648
1.64648
1.64648
1.64648
1.64648
1.64649
1.64649
1.64649
1.6465
1.6465
1.6465
1.6465
1.64651
1.64651
1.64651
1.64651
1.64651
1.64652
1.64652
1.64652
1.64652
1.64652
1.64652
1.64652
1.64653
1.64653
1.64653
1.64653
1.64653
1.64653
1.64654
1.64654
1.64654
1.64654
1.64654
1.64655
1.64655
1.64655
1.64655
1.64655
1.64656
1.64656
1.64656
1.64656
1.64657
1.64657
1.64657
1.64657
1.64657
1.64658
1.64658
1.64658
1.64658
1.64659
1.64659
1.64659
1.64659
1.6466
1.6466
1.6466
1.6466
1.64661
1.64661
1.64661
1.64661
1.64662
1.64662
1.64662
1.64662
1.64663
1.64663
1.64663
1.64663
1.64664
1.64664
1.64664
1.64664
1.64665
1.64665
1.64665
1.64665
1.64666
1.64666
1.64666
1.64666
1.64667
1.64667
1.64667
1.64667
1.64667
1.64668
1.64668
1.64668
1.64668
1.64669
1.64669
1.64669
1.64669
1.6467
1.6467
1.6467
1.6467
1.6467
1.64671
1.64671
1.64671
1.64671
1.64672
1.64672
1.64672
1.64672
1.64672
1.64673
1.64673
1.64673
1.64673
1.64673
1.64674
1.64674
1.64674
1.64674
1.64674
1.64675
1.64675
1.64675
1.64675
1.64675
1.64675
1.64676
1.64676
1.64676
1.64676
1.64676
1.64677
1.64677
1.64677
1.64677
1.64677
1.64677
1.64678
1.64678
1.64678
1.64678
1.64678
1.64678
1.64678
1.64679
1.64679
1.64679
1.64679
1.64679
1.64679
1.64679
1.6468
1.6468
1.6468
1.6468
1.6468
1.6468
1.6468
1.64681
1.64681
1.64681
1.64681
1.64681
1.64681
1.64681
1.64681
1.64682
1.64682
1.64682
1.64682
1.64682
1.64682
1.64682
1.64682
1.64682
1.64683
1.64683
1.64683
1.64683
1.64683
1.64683
1.64683
1.64683
1.64683
1.64683
1.64683
1.64684
1.64684
1.64684
1.64684
1.64684
1.64684
1.64684
1.64684
1.64684
1.64684
1.64684
1.64684
1.64685
1.64685
1.64685
1.64685
1.64685
1.64685
1.64685
1.64685
1.64685
1.64685
1.64685
1.64685
1.64685
1.64685
1.64686
1.64686
1.64686
1.64686
1.64686
1.64686
1.64686
1.64686
1.64686
1.64686
1.64686
1.64686
1.64686
1.64686
1.64686
1.64686
1.64686
1.64686
1.64686
1.64687
1.64687
1.64687
1.64687
1.64687
1.64687
1.64687
1.64687
1.64687
1.64687
1.64687
1.64687
1.64687
1.64687
1.64687
1.64687
1.64687
1.64687
1.64687
1.64687
1.64687
1.64687
1.64687
1.64687
1.64687
1.64687
1.64687
1.64687
1.64688
1.64688
1.64688
1.64688
1.64688
1.64688
1.64688
1.64688
1.64688
1.64688
1.64688
1.64688
1.64688
1.64688
1.64688
1.64688
1.64688
1.64688
1.64688
1.64688
1.64688
1.64688
1.64688
1.64688
1.64688
1.64688
1.64688
1.64688
1.64688
1.64688
1.64688
1.64688
1.64688
1.64688
1.64688
1.64688
1.64688
1.64688
1.64688
1.64688
1.64688
1.64688
1.64688
1.64688
1.64688
1.64688
1.64688
1.64688
1.64688
1.64688
1.64688
1.64688
1.64688
1.64688
1.6446
1.64461
1.64461
1.64461
1.64461
1.64461
1.64462
1.64462
1.64462
1.64463
1.64464
1.64464
1.64465
1.64466
1.64466
1.64467
1.64468
1.64468
1.64469
1.64469
1.6447
1.6447
1.6447
1.64471
1.64471
1.64471
1.64471
1.64472
1.64472
1.64472
1.64472
1.64472
1.64472
1.64473
1.64473
1.64473
1.64473
1.64473
1.64474
1.64474
1.64474
1.64474
1.64474
1.64475
1.64475
1.64475
1.64475
1.64475
1.64476
1.64476
1.64476
1.64476
1.64477
1.64477
1.64477
1.64477
1.64477
1.64478
1.64478
1.64478
1.64478
1.64479
1.64479
1.64479
1.64479
1.6448
1.6448
1.6448
1.6448
1.64481
1.64481
1.64481
1.64481
1.64482
1.64482
1.64482
1.64482
1.64483
1.64483
1.64483
1.64483
1.64484
1.64484
1.64484
1.64484
1.64485
1.64485
1.64485
1.64485
1.64486
1.64486
1.64486
1.64486
1.64487
1.64487
1.64487
1.64487
1.64487
1.64488
1.64488
1.64488
1.64488
1.64489
1.64489
1.64489
1.64489
1.6449
1.6449
1.6449
1.6449
1.6449
1.64491
1.64491
1.64491
1.64491
1.64491
1.64492
1.64492
1.64492
1.64492
1.64492
1.64493
1.64493
1.64493
1.64493
1.64493
1.64494
1.64494
1.64494
1.64494
1.64494
1.64495
1.64495
1.64495
1.64495
1.64495
1.64495
1.64496
1.64496
1.64496
1.64496
1.64496
1.64496
1.64497
1.64497
1.64497
1.64497
1.64497
1.64497
1.64498
1.64498
1.64498
1.64498
1.64498
1.64498
1.64498
1.64499
1.64499
1.64499
1.64499
1.64499
1.64499
1.64499
1.645
1.645
1.645
1.645
1.645
1.645
1.645
1.645
1.64501
1.64501
1.64501
1.64501
1.64501
1.64501
1.64501
1.64501
1.64501
1.64502
1.64502
1.64502
1.64502
1.64502
1.64502
1.64502
1.64502
1.64502
1.64502
1.64503
1.64503
1.64503
1.64503
1.64503
1.64503
1.64503
1.64503
1.64503
1.64503
1.64503
1.64504
1.64504
1.64504
1.64504
1.64504
1.64504
1.64504
1.64504
1.64504
1.64504
1.64504
1.64504
1.64504
1.64504
1.64505
1.64505
1.64505
1.64505
1.64505
1.64505
1.64505
1.64505
1.64505
1.64505
1.64505
1.64505
1.64505
1.64505
1.64505
1.64505
1.64505
1.64506
1.64506
1.64506
1.64506
1.64506
1.64506
1.64506
1.64506
1.64506
1.64506
1.64506
1.64506
1.64506
1.64506
1.64506
1.64506
1.64506
1.64506
1.64506
1.64506
1.64506
1.64506
1.64506
1.64506
1.64507
1.64507
1.64507
1.64507
1.64507
1.64507
1.64507
1.64507
1.64507
1.64507
1.64507
1.64507
1.64507
1.64507
1.64507
1.64507
1.64507
1.64507
1.64507
1.64507
1.64507
1.64507
1.64507
1.64507
1.64507
1.64507
1.64507
1.64507
1.64507
1.64507
1.64507
1.64507
1.64507
1.64507
1.64507
1.64507
1.64507
1.64507
1.64507
1.64507
1.64507
1.64507
1.64507
1.64507
1.64507
1.64507
1.64507
1.64507
1.64507
1.64507
1.64507
1.64507
1.64507
1.64507
1.64507
1.64507
1.64507
1.64507
1.64507
1.64507
1.64507
1.64507
1.64507
1.64507
1.64272
1.64272
1.64272
1.64272
1.64272
1.64273
1.64273
1.64274
1.64274
1.64275
1.64275
1.64276
1.64277
1.64278
1.64279
1.6428
1.64281
1.64282
1.64283
1.64284
1.64285
1.64286
1.64287
1.64288
1.64289
1.64289
1.6429
1.6429
1.64291
1.64291
1.64291
1.64292
1.64292
1.64292
1.64292
1.64292
1.64293
1.64293
1.64293
1.64293
1.64293
1.64294
1.64294
1.64294
1.64294
1.64294
1.64295
1.64295
1.64295
1.64295
1.64296
1.64296
1.64296
1.64296
1.64296
1.64297
1.64297
1.64297
1.64297
1.64298
1.64298
1.64298
1.64298
1.64299
1.64299
1.64299
1.64299
1.643
1.643
1.643
1.643
1.64301
1.64301
1.64301
1.64301
1.64302
1.64302
1.64302
1.64302
1.64303
1.64303
1.64303
1.64303
1.64304
1.64304
1.64304
1.64304
1.64305
1.64305
1.64305
1.64305
1.64306
1.64306
1.64306
1.64306
1.64306
1.64307
1.64307
1.64307
1.64307
1.64308
1.64308
1.64308
1.64308
1.64309
1.64309
1.64309
1.64309
1.64309
1.6431
1.6431
1.6431
1.6431
1.6431
1.64311
1.64311
1.64311
1.64311
1.64312
1.64312
1.64312
1.64312
1.64312
1.64313
1.64313
1.64313
1.64313
1.64313
1.64313
1.64314
1.64314
1.64314
1.64314
1.64314
1.64315
1.64315
1.64315
1.64315
1.64315
1.64315
1.64316
1.64316
1.64316
1.64316
1.64316
1.64316
1.64317
1.64317
1.64317
1.64317
1.64317
1.64317
1.64318
1.64318
1.64318
1.64318
1.64318
1.64318
1.64318
1.64318
1.64319
1.64319
1.64319
1.64319
1.64319
1.64319
1.64319
1.6432
1.6432
1.6432
1.6432
1.6432
1.6432
1.6432
1.6432
1.6432
1.64321
1.64321
1.64321
1.64321
1.64321
1.64321
1.64321
1.64321
1.64321
1.64322
1.64322
1.64322
1.64322
1.64322
1.64322
1.64322
1.64322
1.64322
1.64322
1.64322
1.64323
1.64323
1.64323
1.64323
1.64323
1.64323
1.64323
1.64323
1.64323
1.64323
1.64323
1.64323
1.64324
1.64324
1.64324
1.64324
1.64324
1.64324
1.64324
1.64324
1.64324
1.64324
1.64324
1.64324
1.64324
1.64324
1.64324
1.64324
1.64325
1.64325
1.64325
1.64325
1.64325
1.64325
1.64325
1.64325
1.64325
1.64325
1.64325
1.64325
1.64325
1.64325
1.64325
1.64325
1.64325
1.64325
1.64325
1.64325
1.64326
1.64326
1.64326
1.64326
1.64326
1.64326
1.64326
1.64326
1.64326
1.64326
1.64326
1.64326
1.64326
1.64326
1.64326
1.64326
1.64326
1.64326
1.64326
1.64326
1.64326
1.64326
1.64326
1.64326
1.64326
1.64326
1.64326
1.64326
1.64326
1.64326
1.64326
1.64326
1.64326
1.64326
1.64327
1.64327
1.64327
1.64327
1.64327
1.64327
1.64327
1.64327
1.64327
1.64327
1.64327
1.64327
1.64327
1.64327
1.64327
1.64327
1.64327
1.64327
1.64327
1.64327
1.64327
1.64327
1.64327
1.64327
1.64327
1.64327
1.64327
1.64327
1.64327
1.64327
1.64327
1.64327
1.64327
1.64327
1.64327
1.64327
1.64327
1.64327
1.64327
1.64327
1.64327
1.64327
1.64083
1.64083
1.64083
1.64083
1.64084
1.64084
1.64084
1.64085
1.64085
1.64086
1.64087
1.64087
1.64088
1.64089
1.6409
1.64091
1.64092
1.64094
1.64095
1.64096
1.64098
1.64099
1.641
1.64102
1.64103
1.64105
1.64106
1.64107
1.64109
1.64109
1.6411
1.64111
1.64111
1.64111
1.64112
1.64112
1.64112
1.64112
1.64113
1.64113
1.64113
1.64113
1.64113
1.64114
1.64114
1.64114
1.64114
1.64114
1.64115
1.64115
1.64115
1.64115
1.64116
1.64116
1.64116
1.64116
1.64116
1.64117
1.64117
1.64117
1.64117
1.64118
1.64118
1.64118
1.64118
1.64119
1.64119
1.64119
1.64119
1.6412
1.6412
1.6412
1.6412
1.64121
1.64121
1.64121
1.64121
1.64122
1.64122
1.64122
1.64122
1.64123
1.64123
1.64123
1.64123
1.64124
1.64124
1.64124
1.64124
1.64125
1.64125
1.64125
1.64125
1.64126
1.64126
1.64126
1.64126
1.64126
1.64127
1.64127
1.64127
1.64127
1.64128
1.64128
1.64128
1.64128
1.64129
1.64129
1.64129
1.64129
1.64129
1.6413
1.6413
1.6413
1.6413
1.6413
1.64131
1.64131
1.64131
1.64131
1.64131
1.64132
1.64132
1.64132
1.64132
1.64132
1.64133
1.64133
1.64133
1.64133
1.64133
1.64134
1.64134
1.64134
1.64134
1.64134
1.64134
1.64135
1.64135
1.64135
1.64135
1.64135
1.64135
1.64136
1.64136
1.64136
1.64136
1.64136
1.64136
1.64137
1.64137
1.64137
1.64137
1.64137
1.64137
1.64137
1.64138
1.64138
1.64138
1.64138
1.64138
1.64138
1.64138
1.64139
1.64139
1.64139
1.64139
1.64139
1.64139
1.64139
1.64139
1.6414
1.6414
1.6414
1.6414
1.6414
1.6414
1.6414
1.6414
1.6414
1.64141
1.64141
1.64141
1.64141
1.64141
1.64141
1.64141
1.64141
1.64141
1.64141
1.64142
1.64142
1.64142
1.64142
1.64142
1.64142
1.64142
1.64142
1.64142
1.64142
1.64142
1.64143
1.64143
1.64143
1.64143
1.64143
1.64143
1.64143
1.64143
1.64143
1.64143
1.64143
1.64143
1.64143
1.64143
1.64144
1.64144
1.64144
1.64144
1.64144
1.64144
1.64144
1.64144
1.64144
1.64144
1.64144
1.64144
1.64144
1.64144
1.64144
1.64144
1.64144
1.64145
1.64145
1.64145
1.64145
1.64145
1.64145
1.64145
1.64145
1.64145
1.64145
1.64145
1.64145
1.64145
1.64145
1.64145
1.64145
1.64145
1.64145
1.64145
1.64145
1.64145
1.64145
1.64145
1.64145
1.64145
1.64146
1.64146
1.64146
1.64146
1.64146
1.64146
1.64146
1.64146
1.64146
1.64146
1.64146
1.64146
1.64146
1.64146
1.64146
1.64146
1.64146
1.64146
1.64146
1.64146
1.64146
1.64146
1.64146
1.64146
1.64146
1.64146
1.64146
1.64146
1.64146
1.64146
1.64146
1.64146
1.64146
1.64146
1.64146
1.64146
1.64146
1.64146
1.64146
1.64146
1.64146
1.64146
1.64146
1.64146
1.64146
1.64146
1.64146
1.64146
1.64146
1.64146
1.64146
1.64146
1.64146
1.64146
1.64146
1.64146
1.64146
1.64146
1.64146
1.64146
1.64146
1.64146
1.64146
1.63894
1.63894
1.63894
1.63895
1.63895
1.63895
1.63896
1.63896
1.63897
1.63897
1.63898
1.63899
1.639
1.63901
1.63901
1.63903
1.63904
1.63905
1.63906
1.63908
1.63909
1.6391
1.63912
1.63914
1.63915
1.63917
1.63919
1.63921
1.63922
1.63924
1.63926
1.63927
1.63929
1.6393
1.6393
1.63931
1.63931
1.63932
1.63932
1.63932
1.63933
1.63933
1.63933
1.63933
1.63933
1.63934
1.63934
1.63934
1.63934
1.63935
1.63935
1.63935
1.63935
1.63935
1.63936
1.63936
1.63936
1.63936
1.63937
1.63937
1.63937
1.63937
1.63938
1.63938
1.63938
1.63938
1.63939
1.63939
1.63939
1.63939
1.6394
1.6394
1.6394
1.6394
1.63941
1.63941
1.63941
1.63941
1.63942
1.63942
1.63942
1.63942
1.63943
1.63943
1.63943
1.63943
1.63944
1.63944
1.63944
1.63944
1.63945
1.63945
1.63945
1.63945
1.63945
1.63946
1.63946
1.63946
1.63946
1.63947
1.63947
1.63947
1.63947
1.63948
1.63948
1.63948
1.63948
1.63948
1.63949
1.63949
1.63949
1.63949
1.6395
1.6395
1.6395
1.6395
1.6395
1.63951
1.63951
1.63951
1.63951
1.63951
1.63952
1.63952
1.63952
1.63952
1.63952
1.63953
1.63953
1.63953
1.63953
1.63953
1.63953
1.63954
1.63954
1.63954
1.63954
1.63954
1.63955
1.63955
1.63955
1.63955
1.63955
1.63955
1.63956
1.63956
1.63956
1.63956
1.63956
1.63956
1.63956
1.63957
1.63957
1.63957
1.63957
1.63957
1.63957
1.63957
1.63958
1.63958
1.63958
1.63958
1.63958
1.63958
1.63958
1.63959
1.63959
1.63959
1.63959
1.63959
1.63959
1.63959
1.63959
1.63959
1.6396
1.6396
1.6396
1.6396
1.6396
1.6396
1.6396
1.6396
1.6396
1.63961
1.63961
1.63961
1.63961
1.63961
1.63961
1.63961
1.63961
1.63961
1.63961
1.63962
1.63962
1.63962
1.63962
1.63962
1.63962
1.63962
1.63962
1.63962
1.63962
1.63962
1.63962
1.63963
1.63963
1.63963
1.63963
1.63963
1.63963
1.63963
1.63963
1.63963
1.63963
1.63963
1.63963
1.63963
1.63963
1.63963
1.63964
1.63964
1.63964
1.63964
1.63964
1.63964
1.63964
1.63964
1.63964
1.63964
1.63964
1.63964
1.63964
1.63964
1.63964
1.63964
1.63964
1.63964
1.63964
1.63965
1.63965
1.63965
1.63965
1.63965
1.63965
1.63965
1.63965
1.63965
1.63965
1.63965
1.63965
1.63965
1.63965
1.63965
1.63965
1.63965
1.63965
1.63965
1.63965
1.63965
1.63965
1.63965
1.63965
1.63965
1.63965
1.63965
1.63965
1.63965
1.63966
1.63966
1.63966
1.63966
1.63966
1.63966
1.63966
1.63966
1.63966
1.63966
1.63966
1.63966
1.63966
1.63966
1.63966
1.63966
1.63966
1.63966
1.63966
1.63966
1.63966
1.63966
1.63966
1.63966
1.63966
1.63966
1.63966
1.63966
1.63966
1.63966
1.63966
1.63966
1.63966
1.63966
1.63966
1.63966
1.63966
1.63966
1.63966
1.63966
1.63966
1.63966
1.63966
1.63966
1.63966
1.63966
1.63966
1.63966
1.63966
1.63966
1.63966
1.63966
1.63706
1.63706
1.63706
1.63706
1.63706
1.63706
1.63707
1.63707
1.63708
1.63709
1.63709
1.6371
1.63711
1.63712
1.63713
1.63714
1.63715
1.63716
1.63718
1.63719
1.6372
1.63722
1.63724
1.63725
1.63727
1.63729
1.63731
1.63733
1.63735
1.63737
1.63739
1.63741
1.63743
1.63745
1.63747
1.63748
1.6375
1.6375
1.63751
1.63752
1.63752
1.63752
1.63753
1.63753
1.63753
1.63753
1.63754
1.63754
1.63754
1.63754
1.63755
1.63755
1.63755
1.63755
1.63755
1.63756
1.63756
1.63756
1.63756
1.63757
1.63757
1.63757
1.63757
1.63758
1.63758
1.63758
1.63758
1.63759
1.63759
1.63759
1.63759
1.6376
1.6376
1.6376
1.6376
1.63761
1.63761
1.63761
1.63761
1.63762
1.63762
1.63762
1.63762
1.63763
1.63763
1.63763
1.63763
1.63764
1.63764
1.63764
1.63764
1.63765
1.63765
1.63765
1.63765
1.63766
1.63766
1.63766
1.63766
1.63766
1.63767
1.63767
1.63767
1.63767
1.63768
1.63768
1.63768
1.63768
1.63768
1.63769
1.63769
1.63769
1.63769
1.6377
1.6377
1.6377
1.6377
1.6377
1.63771
1.63771
1.63771
1.63771
1.63771
1.63772
1.63772
1.63772
1.63772
1.63772
1.63773
1.63773
1.63773
1.63773
1.63773
1.63773
1.63774
1.63774
1.63774
1.63774
1.63774
1.63774
1.63775
1.63775
1.63775
1.63775
1.63775
1.63775
1.63776
1.63776
1.63776
1.63776
1.63776
1.63776
1.63777
1.63777
1.63777
1.63777
1.63777
1.63777
1.63777
1.63778
1.63778
1.63778
1.63778
1.63778
1.63778
1.63778
1.63778
1.63779
1.63779
1.63779
1.63779
1.63779
1.63779
1.63779
1.63779
1.6378
1.6378
1.6378
1.6378
1.6378
1.6378
1.6378
1.6378
1.6378
1.6378
1.63781
1.63781
1.63781
1.63781
1.63781
1.63781
1.63781
1.63781
1.63781
1.63781
1.63781
1.63782
1.63782
1.63782
1.63782
1.63782
1.63782
1.63782
1.63782
1.63782
1.63782
1.63782
1.63782
1.63783
1.63783
1.63783
1.63783
1.63783
1.63783
1.63783
1.63783
1.63783
1.63783
1.63783
1.63783
1.63783
1.63783
1.63783
1.63783
1.63784
1.63784
1.63784
1.63784
1.63784
1.63784
1.63784
1.63784
1.63784
1.63784
1.63784
1.63784
1.63784
1.63784
1.63784
1.63784
1.63784
1.63784
1.63784
1.63784
1.63785
1.63785
1.63785
1.63785
1.63785
1.63785
1.63785
1.63785
1.63785
1.63785
1.63785
1.63785
1.63785
1.63785
1.63785
1.63785
1.63785
1.63785
1.63785
1.63785
1.63785
1.63785
1.63785
1.63785
1.63785
1.63785
1.63785
1.63785
1.63785
1.63785
1.63785
1.63785
1.63785
1.63785
1.63785
1.63786
1.63786
1.63786
1.63786
1.63786
1.63786
1.63786
1.63786
1.63786
1.63786
1.63786
1.63786
1.63786
1.63786
1.63786
1.63786
1.63786
1.63786
1.63786
1.63786
1.63786
1.63786
1.63786
1.63786
1.63786
1.63786
1.63786
1.63786
1.63786
1.63786
1.63786
1.63786
1.63786
1.63786
1.63786
1.63786
1.63786
1.63786
1.63786
1.63786
1.63786
1.63517
1.63517
1.63517
1.63517
1.63518
1.63518
1.63518
1.63519
1.63519
1.6352
1.63521
1.63522
1.63522
1.63523
1.63524
1.63526
1.63527
1.63528
1.63529
1.63531
1.63532
1.63534
1.63535
1.63537
1.63539
1.6354
1.63542
1.63544
1.63546
1.63548
1.6355
1.63553
1.63555
1.63557
1.6356
1.63562
1.63564
1.63566
1.63568
1.6357
1.63571
1.63572
1.63572
1.63573
1.63573
1.63573
1.63574
1.63574
1.63574
1.63574
1.63574
1.63575
1.63575
1.63575
1.63575
1.63576
1.63576
1.63576
1.63576
1.63577
1.63577
1.63577
1.63577
1.63578
1.63578
1.63578
1.63578
1.63579
1.63579
1.63579
1.63579
1.6358
1.6358
1.6358
1.6358
1.63581
1.63581
1.63581
1.63581
1.63582
1.63582
1.63582
1.63582
1.63583
1.63583
1.63583
1.63583
1.63584
1.63584
1.63584
1.63584
1.63584
1.63585
1.63585
1.63585
1.63585
1.63586
1.63586
1.63586
1.63586
1.63587
1.63587
1.63587
1.63587
1.63588
1.63588
1.63588
1.63588
1.63588
1.63589
1.63589
1.63589
1.63589
1.63589
1.6359
1.6359
1.6359
1.6359
1.6359
1.63591
1.63591
1.63591
1.63591
1.63591
1.63592
1.63592
1.63592
1.63592
1.63592
1.63593
1.63593
1.63593
1.63593
1.63593
1.63594
1.63594
1.63594
1.63594
1.63594
1.63594
1.63595
1.63595
1.63595
1.63595
1.63595
1.63595
1.63596
1.63596
1.63596
1.63596
1.63596
1.63596
1.63596
1.63597
1.63597
1.63597
1.63597
1.63597
1.63597
1.63597
1.63598
1.63598
1.63598
1.63598
1.63598
1.63598
1.63598
1.63598
1.63599
1.63599
1.63599
1.63599
1.63599
1.63599
1.63599
1.63599
1.636
1.636
1.636
1.636
1.636
1.636
1.636
1.636
1.636
1.636
1.63601
1.63601
1.63601
1.63601
1.63601
1.63601
1.63601
1.63601
1.63601
1.63601
1.63601
1.63602
1.63602
1.63602
1.63602
1.63602
1.63602
1.63602
1.63602
1.63602
1.63602
1.63602
1.63602
1.63603
1.63603
1.63603
1.63603
1.63603
1.63603
1.63603
1.63603
1.63603
1.63603
1.63603
1.63603
1.63603
1.63603
1.63603
1.63603
1.63604
1.63604
1.63604
1.63604
1.63604
1.63604
1.63604
1.63604
1.63604
1.63604
1.63604
1.63604
1.63604
1.63604
1.63604
1.63604
1.63604
1.63604
1.63604
1.63604
1.63604
1.63605
1.63605
1.63605
1.63605
1.63605
1.63605
1.63605
1.63605
1.63605
1.63605
1.63605
1.63605
1.63605
1.63605
1.63605
1.63605
1.63605
1.63605
1.63605
1.63605
1.63605
1.63605
1.63605
1.63605
1.63605
1.63605
1.63605
1.63605
1.63605
1.63605
1.63605
1.63605
1.63605
1.63605
1.63605
1.63605
1.63605
1.63605
1.63606
1.63606
1.63606
1.63606
1.63606
1.63606
1.63606
1.63606
1.63606
1.63606
1.63606
1.63606
1.63606
1.63606
1.63606
1.63606
1.63606
1.63606
1.63606
1.63606
1.63606
1.63606
1.63606
1.63606
1.63606
1.63606
1.63606
1.63606
1.63606
1.63606
1.63606
1.63606
1.63606
1.63606
1.63606
1.63606
1.63329
1.63329
1.63329
1.63329
1.63329
1.6333
1.6333
1.6333
1.63331
1.63332
1.63332
1.63333
1.63334
1.63335
1.63336
1.63337
1.63338
1.6334
1.63341
1.63342
1.63344
1.63345
1.63347
1.63348
1.6335
1.63352
1.63354
1.63356
1.63358
1.6336
1.63362
1.63365
1.63367
1.63369
1.63372
1.63374
1.63377
1.63379
1.63382
1.63384
1.63386
1.63389
1.6339
1.63392
1.63392
1.63393
1.63393
1.63394
1.63394
1.63394
1.63394
1.63395
1.63395
1.63395
1.63395
1.63396
1.63396
1.63396
1.63396
1.63397
1.63397
1.63397
1.63397
1.63398
1.63398
1.63398
1.63398
1.63399
1.63399
1.63399
1.63399
1.634
1.634
1.634
1.634
1.63401
1.63401
1.63401
1.63401
1.63402
1.63402
1.63402
1.63402
1.63403
1.63403
1.63403
1.63403
1.63404
1.63404
1.63404
1.63404
1.63405
1.63405
1.63405
1.63405
1.63405
1.63406
1.63406
1.63406
1.63406
1.63407
1.63407
1.63407
1.63407
1.63408
1.63408
1.63408
1.63408
1.63408
1.63409
1.63409
1.63409
1.63409
1.6341
1.6341
1.6341
1.6341
1.6341
1.63411
1.63411
1.63411
1.63411
1.63411
1.63412
1.63412
1.63412
1.63412
1.63412
1.63412
1.63413
1.63413
1.63413
1.63413
1.63413
1.63414
1.63414
1.63414
1.63414
1.63414
1.63414
1.63415
1.63415
1.63415
1.63415
1.63415
1.63415
1.63416
1.63416
1.63416
1.63416
1.63416
1.63416
1.63416
1.63417
1.63417
1.63417
1.63417
1.63417
1.63417
1.63417
1.63418
1.63418
1.63418
1.63418
1.63418
1.63418
1.63418
1.63419
1.63419
1.63419
1.63419
1.63419
1.63419
1.63419
1.63419
1.63419
1.6342
1.6342
1.6342
1.6342
1.6342
1.6342
1.6342
1.6342
1.6342
1.63421
1.63421
1.63421
1.63421
1.63421
1.63421
1.63421
1.63421
1.63421
1.63421
1.63421
1.63422
1.63422
1.63422
1.63422
1.63422
1.63422
1.63422
1.63422
1.63422
1.63422
1.63422
1.63422
1.63422
1.63423
1.63423
1.63423
1.63423
1.63423
1.63423
1.63423
1.63423
1.63423
1.63423
1.63423
1.63423
1.63423
1.63423
1.63423
1.63423
1.63424
1.63424
1.63424
1.63424
1.63424
1.63424
1.63424
1.63424
1.63424
1.63424
1.63424
1.63424
1.63424
1.63424
1.63424
1.63424
1.63424
1.63424
1.63424
1.63424
1.63424
1.63425
1.63425
1.63425
1.63425
1.63425
1.63425
1.63425
1.63425
1.63425
1.63425
1.63425
1.63425
1.63425
1.63425
1.63425
1.63425
1.63425
1.63425
1.63425
1.63425
1.63425
1.63425
1.63425
1.63425
1.63425
1.63425
1.63425
1.63425
1.63425
1.63425
1.63425
1.63425
1.63425
1.63425
1.63425
1.63425
1.63425
1.63426
1.63426
1.63426
1.63426
1.63426
1.63426
1.63426
1.63426
1.63426
1.63426
1.63426
1.63426
1.63426
1.63426
1.63426
1.63426
1.63426
1.63426
1.63426
1.63426
1.63426
1.63426
1.63426
1.63426
1.63426
1.63426
1.63426
1.63426
1.63426
1.63426
1.63426
1.63426
1.63426
1.63426
1.63426
1.63426
1.63426
1.6314
1.6314
1.63141
1.63141
1.63141
1.63141
1.63142
1.63142
1.63143
1.63143
1.63144
1.63145
1.63146
1.63147
1.63148
1.63149
1.6315
1.63151
1.63153
1.63154
1.63156
1.63157
1.63159
1.6316
1.63162
1.63164
1.63166
1.63168
1.6317
1.63172
1.63174
1.63177
1.63179
1.63181
1.63184
1.63186
1.63189
1.63191
1.63194
1.63197
1.632
1.63202
1.63205
1.63208
1.6321
1.63211
1.63213
1.63213
1.63214
1.63214
1.63215
1.63215
1.63215
1.63215
1.63216
1.63216
1.63216
1.63216
1.63217
1.63217
1.63217
1.63217
1.63218
1.63218
1.63218
1.63218
1.63218
1.63219
1.63219
1.63219
1.63219
1.6322
1.6322
1.6322
1.6322
1.63221
1.63221
1.63221
1.63221
1.63222
1.63222
1.63222
1.63222
1.63223
1.63223
1.63223
1.63223
1.63224
1.63224
1.63224
1.63224
1.63225
1.63225
1.63225
1.63225
1.63226
1.63226
1.63226
1.63226
1.63227
1.63227
1.63227
1.63227
1.63227
1.63228
1.63228
1.63228
1.63228
1.63229
1.63229
1.63229
1.63229
1.63229
1.6323
1.6323
1.6323
1.6323
1.6323
1.63231
1.63231
1.63231
1.63231
1.63231
1.63232
1.63232
1.63232
1.63232
1.63232
1.63233
1.63233
1.63233
1.63233
1.63233
1.63234
1.63234
1.63234
1.63234
1.63234
1.63234
1.63235
1.63235
1.63235
1.63235
1.63235
1.63235
1.63236
1.63236
1.63236
1.63236
1.63236
1.63236
1.63236
1.63237
1.63237
1.63237
1.63237
1.63237
1.63237
1.63237
1.63238
1.63238
1.63238
1.63238
1.63238
1.63238
1.63238
1.63239
1.63239
1.63239
1.63239
1.63239
1.63239
1.63239
1.63239
1.63239
1.6324
1.6324
1.6324
1.6324
1.6324
1.6324
1.6324
1.6324
1.6324
1.63241
1.63241
1.63241
1.63241
1.63241
1.63241
1.63241
1.63241
1.63241
1.63241
1.63242
1.63242
1.63242
1.63242
1.63242
1.63242
1.63242
1.63242
1.63242
1.63242
1.63242
1.63242
1.63242
1.63243
1.63243
1.63243
1.63243
1.63243
1.63243
1.63243
1.63243
1.63243
1.63243
1.63243
1.63243
1.63243
1.63243
1.63243
1.63244
1.63244
1.63244
1.63244
1.63244
1.63244
1.63244
1.63244
1.63244
1.63244
1.63244
1.63244
1.63244
1.63244
1.63244
1.63244
1.63244
1.63244
1.63244
1.63244
1.63245
1.63245
1.63245
1.63245
1.63245
1.63245
1.63245
1.63245
1.63245
1.63245
1.63245
1.63245
1.63245
1.63245
1.63245
1.63245
1.63245
1.63245
1.63245
1.63245
1.63245
1.63245
1.63245
1.63245
1.63245
1.63245
1.63245
1.63245
1.63245
1.63245
1.63245
1.63245
1.63245
1.63246
1.63246
1.63246
1.63246
1.63246
1.63246
1.63246
1.63246
1.63246
1.63246
1.63246
1.63246
1.63246
1.63246
1.63246
1.63246
1.63246
1.63246
1.63246
1.63246
1.63246
1.63246
1.63246
1.63246
1.63246
1.63246
1.63246
1.63246
1.63246
1.63246
1.63246
1.63246
1.63246
1.63246
1.63246
1.63246
1.63246
1.63246
1.63246
1.63246
1.63246
1.63246
1.63246
1.63246
1.63246
1.62952
1.62952
1.62952
1.62953
1.62953
1.62953
1.62954
1.62954
1.62955
1.62955
1.62956
1.62957
1.62958
1.62959
1.6296
1.62961
1.62962
1.62963
1.62965
1.62966
1.62967
1.62969
1.62971
1.62972
1.62974
1.62976
1.62978
1.6298
1.62982
1.62984
1.62986
1.62989
1.62991
1.62993
1.62996
1.62998
1.63001
1.63004
1.63006
1.63009
1.63012
1.63015
1.63018
1.63021
1.63024
1.63027
1.63029
1.63031
1.63033
1.63034
1.63034
1.63035
1.63035
1.63036
1.63036
1.63036
1.63036
1.63037
1.63037
1.63037
1.63037
1.63038
1.63038
1.63038
1.63038
1.63039
1.63039
1.63039
1.63039
1.6304
1.6304
1.6304
1.6304
1.63041
1.63041
1.63041
1.63041
1.63042
1.63042
1.63042
1.63042
1.63043
1.63043
1.63043
1.63043
1.63044
1.63044
1.63044
1.63044
1.63044
1.63045
1.63045
1.63045
1.63045
1.63046
1.63046
1.63046
1.63046
1.63047
1.63047
1.63047
1.63047
1.63048
1.63048
1.63048
1.63048
1.63048
1.63049
1.63049
1.63049
1.63049
1.6305
1.6305
1.6305
1.6305
1.6305
1.63051
1.63051
1.63051
1.63051
1.63051
1.63052
1.63052
1.63052
1.63052
1.63052
1.63053
1.63053
1.63053
1.63053
1.63053
1.63053
1.63054
1.63054
1.63054
1.63054
1.63054
1.63055
1.63055
1.63055
1.63055
1.63055
1.63055
1.63056
1.63056
1.63056
1.63056
1.63056
1.63056
1.63056
1.63057
1.63057
1.63057
1.63057
1.63057
1.63057
1.63057
1.63058
1.63058
1.63058
1.63058
1.63058
1.63058
1.63058
1.63059
1.63059
1.63059
1.63059
1.63059
1.63059
1.63059
1.63059
1.6306
1.6306
1.6306
1.6306
1.6306
1.6306
1.6306
1.6306
1.6306
1.63061
1.63061
1.63061
1.63061
1.63061
1.63061
1.63061
1.63061
1.63061
1.63061
1.63061
1.63062
1.63062
1.63062
1.63062
1.63062
1.63062
1.63062
1.63062
1.63062
1.63062
1.63062
1.63063
1.63063
1.63063
1.63063
1.63063
1.63063
1.63063
1.63063
1.63063
1.63063
1.63063
1.63063
1.63063
1.63063
1.63063
1.63064
1.63064
1.63064
1.63064
1.63064
1.63064
1.63064
1.63064
1.63064
1.63064
1.63064
1.63064
1.63064
1.63064
1.63064
1.63064
1.63064
1.63064
1.63065
1.63065
1.63065
1.63065
1.63065
1.63065
1.63065
1.63065
1.63065
1.63065
1.63065
1.63065
1.63065
1.63065
1.63065
1.63065
1.63065
1.63065
1.63065
1.63065
1.63065
1.63065
1.63065
1.63065
1.63065
1.63065
1.63065
1.63065
1.63066
1.63066
1.63066
1.63066
1.63066
1.63066
1.63066
1.63066
1.63066
1.63066
1.63066
1.63066
1.63066
1.63066
1.63066
1.63066
1.63066
1.63066
1.63066
1.63066
1.63066
1.63066
1.63066
1.63066
1.63066
1.63066
1.63066
1.63066
1.63066
1.63066
1.63066
1.63066
1.63066
1.63066
1.63066
1.63066
1.63066
1.63066
1.63066
1.63066
1.63066
1.63066
1.63066
1.63066
1.63066
1.63066
1.63066
1.63066
1.63066
1.63066
1.63066
1.63066
1.63066
1.63066
1.63066
1.63066
1.62764
1.62764
1.62764
1.62765
1.62765
1.62765
1.62766
1.62766
1.62767
1.62767
1.62768
1.62769
1.6277
1.62771
1.62772
1.62773
1.62774
1.62775
1.62777
1.62778
1.6278
1.62781
1.62783
1.62785
1.62786
1.62788
1.6279
1.62792
1.62794
1.62796
1.62798
1.62801
1.62803
1.62806
1.62808
1.62811
1.62813
1.62816
1.62819
1.62822
1.62824
1.62827
1.6283
1.62833
1.62837
1.6284
1.62843
1.62846
1.62849
1.62851
1.62853
1.62854
1.62855
1.62856
1.62856
1.62856
1.62857
1.62857
1.62857
1.62857
1.62858
1.62858
1.62858
1.62858
1.62859
1.62859
1.62859
1.62859
1.6286
1.6286
1.6286
1.6286
1.62861
1.62861
1.62861
1.62861
1.62862
1.62862
1.62862
1.62862
1.62863
1.62863
1.62863
1.62863
1.62864
1.62864
1.62864
1.62864
1.62865
1.62865
1.62865
1.62865
1.62866
1.62866
1.62866
1.62866
1.62867
1.62867
1.62867
1.62867
1.62867
1.62868
1.62868
1.62868
1.62868
1.62869
1.62869
1.62869
1.62869
1.62869
1.6287
1.6287
1.6287
1.6287
1.62871
1.62871
1.62871
1.62871
1.62871
1.62872
1.62872
1.62872
1.62872
1.62872
1.62873
1.62873
1.62873
1.62873
1.62873
1.62874
1.62874
1.62874
1.62874
1.62874
1.62874
1.62875
1.62875
1.62875
1.62875
1.62875
1.62875
1.62876
1.62876
1.62876
1.62876
1.62876
1.62876
1.62877
1.62877
1.62877
1.62877
1.62877
1.62877
1.62877
1.62878
1.62878
1.62878
1.62878
1.62878
1.62878
1.62878
1.62879
1.62879
1.62879
1.62879
1.62879
1.62879
1.62879
1.62879
1.6288
1.6288
1.6288
1.6288
1.6288
1.6288
1.6288
1.6288
1.6288
1.62881
1.62881
1.62881
1.62881
1.62881
1.62881
1.62881
1.62881
1.62881
1.62882
1.62882
1.62882
1.62882
1.62882
1.62882
1.62882
1.62882
1.62882
1.62882
1.62882
1.62882
1.62883
1.62883
1.62883
1.62883
1.62883
1.62883
1.62883
1.62883
1.62883
1.62883
1.62883
1.62883
1.62883
1.62884
1.62884
1.62884
1.62884
1.62884
1.62884
1.62884
1.62884
1.62884
1.62884
1.62884
1.62884
1.62884
1.62884
1.62884
1.62884
1.62885
1.62885
1.62885
1.62885
1.62885
1.62885
1.62885
1.62885
1.62885
1.62885
1.62885
1.62885
1.62885
1.62885
1.62885
1.62885
1.62885
1.62885
1.62885
1.62885
1.62885
1.62885
1.62885
1.62886
1.62886
1.62886
1.62886
1.62886
1.62886
1.62886
1.62886
1.62886
1.62886
1.62886
1.62886
1.62886
1.62886
1.62886
1.62886
1.62886
1.62886
1.62886
1.62886
1.62886
1.62886
1.62886
1.62886
1.62886
1.62886
1.62886
1.62886
1.62886
1.62886
1.62886
1.62886
1.62886
1.62886
1.62886
1.62886
1.62886
1.62886
1.62886
1.62886
1.62886
1.62886
1.62886
1.62886
1.62886
1.62886
1.62886
1.62886
1.62887
1.62887
1.62887
1.62887
1.62887
1.62887
1.62887
1.62887
1.62887
1.62887
1.62887
1.62887
1.62887
1.62887
1.62887
1.62887
1.62887
1.62887
1.62887
1.62887
1.62887
1.62576
1.62577
1.62577
1.62577
1.62577
1.62578
1.62578
1.62578
1.62579
1.6258
1.6258
1.62581
1.62582
1.62583
1.62584
1.62585
1.62586
1.62588
1.62589
1.6259
1.62592
1.62594
1.62595
1.62597
1.62599
1.62601
1.62602
1.62604
1.62607
1.62609
1.62611
1.62613
1.62615
1.62618
1.62621
1.62623
1.62626
1.62628
1.62631
1.62634
1.62637
1.6264
1.62643
1.62646
1.62649
1.62652
1.62656
1.62659
1.62662
1.62666
1.62669
1.62671
1.62674
1.62675
1.62676
1.62677
1.62677
1.62677
1.62678
1.62678
1.62678
1.62678
1.62679
1.62679
1.62679
1.62679
1.6268
1.6268
1.6268
1.6268
1.62681
1.62681
1.62681
1.62681
1.62682
1.62682
1.62682
1.62682
1.62683
1.62683
1.62683
1.62683
1.62684
1.62684
1.62684
1.62684
1.62685
1.62685
1.62685
1.62685
1.62686
1.62686
1.62686
1.62686
1.62687
1.62687
1.62687
1.62687
1.62688
1.62688
1.62688
1.62688
1.62688
1.62689
1.62689
1.62689
1.62689
1.6269
1.6269
1.6269
1.6269
1.6269
1.62691
1.62691
1.62691
1.62691
1.62691
1.62692
1.62692
1.62692
1.62692
1.62692
1.62693
1.62693
1.62693
1.62693
1.62693
1.62694
1.62694
1.62694
1.62694
1.62694
1.62695
1.62695
1.62695
1.62695
1.62695
1.62695
1.62696
1.62696
1.62696
1.62696
1.62696
1.62696
1.62697
1.62697
1.62697
1.62697
1.62697
1.62697
1.62698
1.62698
1.62698