/*--------------------------------*- C++ -*----------------------------------*\
| =========                 |                                                 |
| \\      /  F ield         | OpenFOAM: The Open Source CFD Toolbox           |
|  \\    /   O peration     | Version:  2212                                  |
|   \\  /    A nd           | Website:  www.openfoam.com                      |
|    \\/     M anipulation  |                                                 |
\*---------------------------------------------------------------------------*/
FoamFile
{
    version     2.0;
    format      ascii;
    arch        "LSB;label=32;scalar=64";
    class       surfaceScalarField;
    location    "710";
    object      phi;
}
// * * * * * * * * * * * * * * * * * * * * * * * * * * * * * * * * * * * * * //

dimensions      [1 0 -1 0 0 0 0];

oriented        oriented;

internalField   nonuniform List<scalar> 
408640
(
-1163.62
1161.72
-2292.19
1128.26
-3355.61
1063.11
-4336.59
980.673
-5232.23
895.356
-6051.21
818.7
-6808.91
757.422
-7522.67
713.483
-8208.31
685.374
-8878.33
669.75
-9541.43
662.841
-10203
661.31
-10865.9
662.63
-11531.3
665.105
-12199.3
667.721
-12869.5
669.945
-13541.3
671.549
-14214.1
672.477
-14887.1
672.755
-15559.8
672.445
-16231.7
671.616
-16902.3
670.333
-17571.2
668.653
-18238.1
666.622
-18902.7
664.28
-19564.6
661.658
-20223.7
658.782
-20879.6
655.674
-21532.3
652.352
-22181.4
648.832
-22826.8
645.127
-23468.4
641.247
-24105.8
637.203
-24739.1
633.003
-25368.1
628.654
-25992.5
624.163
-26612.4
619.537
-27227.5
614.78
-27837.7
609.898
-28442.9
604.895
-29042.9
599.775
-29637.8
594.543
-30227.3
589.202
-30811.4
583.756
-31389.9
578.209
-31962.7
572.562
-32529.9
566.821
-33091.2
560.987
-33646.6
555.063
-34195.9
549.053
-34739.2
542.959
-35276.3
536.785
-35807.2
530.531
-36331.7
524.203
-36849.8
517.801
-37361.5
511.328
-37866.6
504.788
-38365.1
498.182
-38857
491.513
-39342.1
484.784
-39820.4
477.997
-40291.9
471.154
-40756.5
464.257
-41214.2
457.31
-41664.8
450.315
-42108.5
443.273
-42545
436.188
-42974.4
429.061
-43396.7
421.896
-43811.7
414.693
-44219.5
407.456
-44620
400.186
-45013.3
392.887
-45399.2
385.559
-45777.8
378.206
-46149
370.83
-46512.8
363.432
-46869.1
356.015
-47218.1
348.581
-47559.6
341.132
-47893.6
333.671
-48220.2
326.198
-48539.3
318.717
-48850.9
311.23
-49155
303.737
-49451.6
296.242
-49740.7
288.747
-50022.3
281.252
-50296.5
273.761
-50563.1
266.274
-50822.3
258.794
-51074
251.323
-51318.2
243.862
-51555
236.414
-51784.3
228.979
-52006.3
221.56
-52220.8
214.158
-52428
206.775
-52627.8
199.413
-52820.2
192.073
-53005.3
184.756
-53183.2
177.465
-53353.8
170.201
-53517.1
162.964
-53673.2
155.757
-53822.2
148.581
-53964
141.438
-54098.7
134.328
-54226.3
127.253
-54346.9
120.214
-54460.5
113.213
-54567.1
106.25
-54666.8
99.3276
-54759.7
92.4457
-54845.6
85.6059
-54924.8
78.8092
-54997.2
72.0566
-55063
65.3491
-55122
58.6877
-55174.5
52.0733
-55220.3
45.5069
-55259.7
38.9892
-55292.6
32.5211
-55319
26.1035
-55339.1
19.737
-55352.9
13.4224
-55360.4
7.16043
-55361.7
0.951726
-55356.9
-5.20306
-55345.9
-11.3033
-55328.9
-17.3485
-55305.9
-23.338
-55277
-29.2714
-55242.2
-35.1481
-55201.6
-40.9678
-55155.2
-46.7299
-55103.1
-52.4341
-55045.4
-58.0801
-54982
-63.6674
-54913.2
-69.1958
-54838.8
-74.6649
-54759.1
-80.0746
-54674
-85.4246
-54583.6
-90.7147
-54488
-95.9447
-54387.2
-101.115
-54281.3
-106.224
-54170.3
-111.273
-54054.3
-116.261
-53933.5
-121.189
-53807.7
-126.056
-53677.1
-130.863
-53541.8
-135.609
-53401.8
-140.294
-53257.2
-144.919
-53108
-149.483
-52954.3
-153.987
-52796.1
-158.431
-52633.6
-162.815
-52466.7
-167.138
-52295.6
-171.402
-52120.3
-175.607
-51940.8
-179.752
-51757.2
-183.837
-51569.6
-187.864
-51378
-191.832
-51182.5
-195.742
-50983.1
-199.594
-50780
-203.388
-50573.1
-207.124
-50362.5
-210.803
-50148.3
-214.425
-49930.6
-217.991
-49709.3
-221.501
-49484.5
-224.955
-49256.4
-228.354
-49024.9
-231.697
-48790.1
-234.987
-48552.1
-238.222
-48310.9
-241.403
-48066.5
-244.531
-47819.1
-247.606
-47568.7
-250.629
-47315.2
-253.6
-47058.9
-256.52
-46799.7
-259.388
-46537.6
-262.206
-46272.8
-264.975
-46005.3
-267.693
-45735
-270.363
-45462.2
-272.984
-45186.8
-275.557
-44908.8
-278.083
-44628.4
-280.561
-44345.5
-282.994
-44060.3
-285.38
-43772.7
-287.721
-43482.7
-290.017
-43190.6
-292.269
-42896.2
-294.477
-42599.7
-296.642
-42301
-298.764
-42000.2
-300.843
-41697.4
-302.882
-41392.6
-304.879
-41085.8
-306.835
-40777.1
-308.752
-40466.6
-310.629
-40154.2
-312.467
-39839.9
-314.266
-39524
-316.028
-39206.2
-317.753
-38886.8
-319.441
-38565.8
-321.092
-38243.1
-322.708
-37918.8
-324.288
-37593
-325.834
-37265.7
-327.346
-36936.8
-328.825
-36606.6
-330.27
-36274.9
-331.682
-35941.8
-333.063
-35607.4
-334.412
-35271.6
-335.73
-34934.6
-337.018
-34596.2
-338.276
-34256.7
-339.504
-33916
-340.703
-33574
-341.874
-33231
-343.017
-32886.8
-344.132
-32541.5
-345.22
-32195.1
-346.282
-31847.7
-347.318
-31499.3
-348.328
-31149.9
-349.313
-30799.6
-350.274
-30448.3
-351.21
-30096
-352.122
-29742.9
-353.012
-29388.9
-353.878
-29034.1
-354.722
-28678.4
-355.544
-28322
-356.344
-27964.7
-357.124
-27606.7
-357.882
-27248
-358.621
-26888.5
-359.339
-26528.3
-360.038
-26167.4
-360.718
-25805.9
-361.379
-25443.7
-362.022
-25080.9
-362.648
-24717.5
-363.255
-24353.5
-363.846
-23988.9
-364.419
-23623.7
-364.976
-23258
-365.518
-22891.8
-366.043
-22525
-366.553
-22157.8
-367.048
-21790
-367.528
-21421.8
-367.994
-21053.2
-368.446
-20684.1
-368.884
-20314.6
-369.309
-19944.6
-369.721
-19574.3
-370.119
-19203.6
-370.506
-18832.4
-370.88
-18461
-371.242
-18089.1
-371.592
-17717
-371.931
-17344.5
-372.259
-16971.6
-372.576
-16598.5
-372.882
-16225.1
-373.178
-15851.3
-373.463
-15477.3
-373.739
-15103.1
-374.005
-14728.5
-374.262
-14353.8
-374.51
-13978.7
-374.748
-13603.5
-374.978
-13228
-375.199
-12852.3
-375.412
-12476.4
-375.616
-12100.3
-375.813
-11724
-376.001
-11347.6
-376.182
-10970.9
-376.356
-10594.1
-376.522
-10217.1
-376.681
-9839.99
-376.833
-9462.71
-376.978
-9085.29
-377.117
-8707.74
-377.249
-8330.05
-377.375
-7952.25
-377.495
-7574.33
-377.608
-7196.31
-377.716
-6818.18
-377.818
-6439.95
-377.914
-6061.63
-378.006
-5683.22
-378.091
-5304.73
-378.172
-4926.16
-378.248
-4547.52
-378.319
-4168.81
-378.385
-3790.05
-378.447
-3411.22
-378.504
-3032.34
-378.556
-2653.41
-378.604
-2274.44
-378.647
-1895.43
-378.685
-1516.39
-378.718
-1137.32
-378.745
-758.223
-378.767
-379.115
-378.782
-378.789
-1143.36
2304.76
-2254.78
2239.36
-3305.93
2113.95
-4280.32
1954.76
-5174.71
1789.46
-5996.49
1640.19
-6759.47
1520.13
-7479.59
1433.33
-8171.64
1377.15
-8847.46
1345.3
-9515.47
1330.58
-10181
1326.55
-10846.9
1328.29
-11514.5
1332.47
-12184.2
1337.08
-12855.5
1341.05
-13528.1
1343.88
-14201.4
1345.46
-14874.7
1345.8
-15547.6
1345.01
-16219.4
1343.23
-16890
1340.57
-17558.7
1337.14
-18225.4
1333.02
-18889.7
1328.28
-19551.3
1323
-20210
1317.22
-20865.6
1310.98
-21517.8
1304.31
-22166.6
1297.26
-22811.6
1289.83
-23452.7
1282.06
-24089.7
1273.96
-24722.5
1265.55
-25351
1256.85
-25975
1247.86
-26594.4
1238.61
-27209
1229.09
-27818.7
1219.32
-28423.4
1209.31
-29023
1199.07
-29617.4
1188.61
-30206.4
1177.92
-30790
1167.03
-31368.1
1155.93
-31940.4
1144.64
-32507.1
1133.16
-33067.9
1121.49
-33622.8
1109.64
-34171.7
1097.62
-34714.5
1085.44
-35251.1
1073.09
-35781.5
1060.58
-36305.6
1047.93
-36823.2
1035.13
-37334.4
1022.18
-37839
1009.1
-38337.1
995.895
-38828.5
982.56
-39313.1
969.104
-39791
955.531
-40262
941.848
-40726.2
928.059
-41183.4
914.167
-41633.6
900.18
-42076.8
886.1
-42512.8
871.932
-42941.8
857.682
-43363.6
843.354
-43778.2
828.952
-44185.6
814.481
-44585.7
799.946
-44978.5
785.35
-45364
770.699
-45742.2
755.997
-46113
741.248
-46476.3
726.457
-46832.3
711.627
-47180.9
696.764
-47522
681.87
-47855.6
666.952
-48181.8
652.012
-48500.5
637.054
-48811.7
622.084
-49115.5
607.104
-49411.7
592.119
-49700.5
577.132
-49981.7
562.148
-50255.5
547.17
-50521.8
532.202
-50780.6
517.247
-51032
502.31
-51275.9
487.394
-51512.4
472.502
-51741.4
457.638
-51963
442.806
-52177.2
428.008
-52384.1
413.247
-52583.6
398.528
-52775.7
383.854
-52960.6
369.226
-53138.1
354.65
-53308.5
340.126
-53471.5
325.659
-53627.4
311.251
-53776.1
296.905
-53917.7
282.624
-54052.1
268.41
-54179.5
254.266
-54299.9
240.195
-54413.2
226.198
-54519.6
212.279
-54619.1
198.439
-54711.7
184.682
-54797.5
171.008
-54876.5
157.421
-54948.7
143.922
-55014.2
130.513
-55073.1
117.196
-55125.4
103.974
-55171.1
90.847
-55210.3
77.8179
-55243
64.8879
-55269.3
52.0588
-55289.3
39.3321
-55302.9
26.7091
-55310.3
14.1914
-55311.5
1.78016
-55306.5
-10.5232
-55295.4
-22.7175
-55278.3
-34.8017
-55255.3
-46.7746
-55226.2
-58.6351
-55191.3
-70.3824
-55150.6
-82.0156
-55104.2
-93.5337
-55052
-104.936
-54994.2
-116.222
-54930.8
-127.39
-54861.9
-138.441
-54787.5
-149.373
-54707.7
-160.187
-54622.6
-170.881
-54532.2
-181.455
-54436.5
-191.909
-54335.7
-202.242
-54229.8
-212.455
-54118.8
-222.547
-54002.9
-232.518
-53882
-242.368
-53756.3
-252.097
-53625.7
-261.704
-53490.4
-271.19
-53350.5
-280.555
-53205.9
-289.799
-53056.7
-298.922
-52903.1
-307.925
-52745
-316.807
-52582.5
-325.569
-52415.7
-334.21
-52244.6
-342.733
-52069.4
-351.136
-51890
-359.42
-51706.5
-367.587
-51519
-375.635
-51327.5
-383.566
-51132.1
-391.38
-50932.8
-399.079
-50729.8
-406.661
-50523
-414.129
-50312.6
-421.482
-50098.5
-428.722
-49880.9
-435.849
-49659.7
-442.863
-49435.1
-449.766
-49207.1
-456.559
-48975.8
-463.242
-48741.2
-469.815
-48503.3
-476.281
-48262.3
-482.639
-48018.1
-488.89
-47770.8
-495.036
-47520.6
-501.078
-47267.3
-507.015
-47011.2
-512.85
-46752.1
-518.583
-46490.3
-524.215
-46225.7
-529.747
-45958.3
-535.18
-45688.3
-540.515
-45415.7
-545.753
-45140.5
-550.896
-44862.8
-555.943
-44582.6
-560.897
-44299.9
-565.757
-44014.9
-570.526
-43727.5
-575.204
-43437.9
-579.793
-43145.9
-584.293
-42851.8
-588.705
-42555.5
-593.031
-42257.1
-597.271
-41956.6
-601.428
-41654.1
-605.501
-41349.5
-609.491
-41043
-613.401
-40734.6
-617.231
-40424.3
-620.982
-40112.2
-624.655
-39798.2
-628.251
-39482.5
-631.771
-39165.1
-635.217
-38846
-638.59
-38525.2
-641.89
-38202.8
-645.119
-37878.9
-648.277
-37553.3
-651.366
-37226.3
-654.387
-36897.8
-657.341
-36567.8
-660.229
-36236.4
-663.051
-35903.7
-665.81
-35569.6
-668.506
-35234.1
-671.14
-34897.4
-673.713
-34559.4
-676.226
-34220.2
-678.68
-33879.8
-681.076
-33538.2
-683.415
-33195.5
-685.699
-32851.6
-687.927
-32506.7
-690.101
-32160.7
-692.223
-31813.6
-694.292
-31465.6
-696.311
-31116.5
-698.279
-30766.5
-700.197
-30415.5
-702.068
-30063.7
-703.891
-29710.9
-705.668
-29357.3
-707.398
-29002.8
-709.084
-28647.5
-710.727
-28291.4
-712.326
-27934.5
-713.883
-27576.9
-715.398
-27218.5
-716.874
-26859.4
-718.309
-26499.6
-719.705
-26139.1
-721.064
-25777.9
-722.385
-25416.1
-723.67
-25053.7
-724.918
-24690.6
-726.132
-24327
-727.312
-23962.8
-728.457
-23598
-729.571
-23232.7
-730.652
-22866.8
-731.701
-22500.5
-732.72
-22133.6
-733.709
-21766.3
-734.668
-21398.5
-735.599
-21030.2
-736.502
-20661.5
-737.377
-20292.4
-738.225
-19922.8
-739.047
-19552.9
-739.844
-19182.5
-740.615
-18811.8
-741.362
-18440.7
-742.085
-18069.3
-742.785
-17697.5
-743.462
-17325.4
-744.117
-16953
-744.75
-16580.3
-745.361
-16207.2
-745.952
-15833.9
-746.523
-15460.3
-747.074
-15086.5
-747.606
-14712.3
-748.118
-14338
-748.613
-13963.4
-749.089
-13588.5
-749.548
-13213.4
-749.989
-12838.2
-750.414
-12462.7
-750.822
-12087
-751.215
-11711.1
-751.592
-11335
-751.953
-10958.8
-752.299
-10582.4
-752.631
-10205.8
-752.949
-9829.12
-753.253
-9452.26
-753.543
-9075.25
-753.82
-8698.11
-754.084
-8320.85
-754.335
-7943.46
-754.574
-7565.96
-754.801
-7188.35
-755.016
-6810.64
-755.219
-6432.82
-755.412
-6054.92
-755.594
-5676.93
-755.765
-5298.86
-755.927
-4920.71
-756.078
-4542.49
-756.22
-4164.2
-756.352
-3785.85
-756.475
-3407.45
-756.589
-3028.99
-756.694
-2650.48
-756.789
-2271.93
-756.875
-1893.33
-756.951
-1514.71
-757.017
-1136.06
-757.072
-757.387
-757.115
-378.699
-757.145
-757.162
-1118.61
3423.04
-2208.02
3328.45
-3242.96
3148.59
-4208.33
2919.83
-5100.54
2681.38
-5925.5
2464.88
-6695.16
2289.51
-7423.62
2161.52
-8124.27
2077.53
-8808.04
2028.81
-9482.9
2005.18
-10154
1997.41
-10824.4
1998.39
-11495.5
2003.26
-12167.7
2009.03
-12841
2014.07
-13515
2017.63
-14189.2
2019.45
-14863.3
2019.56
-15536.6
2018.07
-16208.8
2015.16
-16879.5
2010.98
-17548.3
2005.68
-18214.9
1999.38
-18879.1
1992.19
-19540.6
1984.19
-20199.1
1975.45
-20854.4
1966.04
-21506.4
1956
-22154.8
1945.38
-22799.5
1934.21
-23440.2
1922.53
-24076.9
1910.36
-24709.4
1897.73
-25337.5
1884.66
-25961.1
1871.17
-26580.1
1857.27
-27194.3
1842.98
-27803.6
1828.32
-28407.9
1813.3
-29007
1797.94
-29601
1782.23
-30189.5
1766.2
-30772.7
1749.86
-31350.3
1733.22
-31922.2
1716.27
-32488.4
1699.05
-33048.8
1681.55
-33603.2
1663.77
-34151.7
1645.75
-34694
1627.47
-35230.2
1608.94
-35760.1
1590.19
-36283.7
1571.2
-36800.9
1552
-37311.7
1532.59
-37815.9
1512.97
-38313.5
1493.16
-38804.4
1473.16
-39288.6
1452.98
-39766
1432.62
-40236.6
1412.1
-40700.3
1391.42
-41157.1
1370.59
-41606.9
1349.61
-42049.6
1328.49
-42485.3
1307.24
-42913.8
1285.87
-43335.2
1264.38
-43749.4
1242.79
-44156.3
1221.08
-44556
1199.29
-44948.4
1177.4
-45333.5
1155.43
-45711.2
1133.38
-46081.6
1111.26
-46444.6
1089.08
-46800.2
1066.84
-47148.3
1044.55
-47489
1022.21
-47822.3
999.842
-48148.1
977.438
-48466.4
955.008
-48777.2
932.559
-49080.6
910.095
-49376.5
887.624
-49664.9
865.15
-49945.8
842.681
-50219.2
820.22
-50485.1
797.775
-50743.6
775.351
-50994.6
752.952
-51238.2
730.585
-51474.3
708.255
-51703
685.966
-51924.3
663.724
-52138.2
641.535
-52344.8
619.402
-52543.9
597.331
-52735.8
575.327
-52920.3
553.394
-53097.6
531.536
-53267.6
509.759
-53430.4
488.066
-53586
466.463
-53734.4
444.952
-53875.7
423.538
-54009.9
402.226
-54137
381.018
-54257.1
359.92
-54370.2
338.933
-54476.4
318.063
-54575.6
297.312
-54668
276.684
-54753.5
256.183
-54832.3
235.81
-54904.3
215.571
-54969.6
195.466
-55028.3
175.5
-55080.4
155.675
-55125.9
135.994
-55164.9
116.459
-55197.4
97.0729
-55223.6
77.8381
-55243.4
58.7569
-55256.8
39.8314
-55264.1
21.0637
-55265.1
2.45594
-55260
-15.9901
-55248.8
-34.2726
-55231.5
-52.3898
-55208.3
-70.3402
-55179.2
-88.122
-55144.2
-105.734
-55103.4
-123.175
-55056.8
-140.443
-55004.5
-157.537
-54946.6
-174.457
-54883.1
-191.201
-54814.2
-207.768
-54739.7
-224.157
-54659.8
-240.368
-54574.6
-256.401
-54484.2
-272.253
-54388.5
-287.925
-54287.6
-303.417
-54181.7
-318.728
-54070.7
-333.857
-53954.7
-348.805
-53833.8
-363.571
-53708
-378.155
-53577.5
-392.557
-53442.2
-406.778
-53302.2
-420.817
-53157.6
-434.674
-53008.5
-448.351
-52854.8
-461.846
-52696.8
-475.16
-52534.3
-488.295
-52367.5
-501.249
-52196.5
-514.025
-52021.3
-526.621
-51841.9
-539.04
-51658.5
-551.281
-51471
-563.346
-51279.6
-575.234
-51084.3
-586.948
-50885.1
-598.487
-50682.2
-609.853
-50475.5
-621.047
-50265.1
-632.069
-50051.2
-642.921
-49833.6
-653.604
-49612.6
-664.118
-49388.1
-674.466
-49160.2
-684.647
-48929
-694.664
-48694.5
-704.517
-48456.8
-714.208
-48215.9
-723.738
-47971.8
-733.109
-47724.7
-742.321
-47474.6
-751.376
-47221.5
-760.275
-46965.5
-769.021
-46706.7
-777.614
-46445
-786.055
-46180.5
-794.346
-45913.4
-802.49
-45643.6
-810.486
-45371.1
-818.337
-45096.1
-826.044
-44818.6
-833.609
-44538.6
-841.033
-44256.1
-848.318
-43971.3
-855.466
-43684.1
-862.477
-43394.7
-869.354
-43103
-876.098
-42809.1
-882.711
-42513
-889.194
-42214.8
-895.549
-41914.6
-901.778
-41612.3
-907.882
-41308
-913.863
-41001.7
-919.722
-40693.5
-925.462
-40383.5
-931.083
-40071.6
-936.587
-39757.9
-941.977
-39442.5
-947.253
-39125.3
-952.417
-38806.5
-957.471
-38486
-962.416
-38163.9
-967.255
-37840.2
-971.988
-37514.9
-976.617
-37188.2
-981.144
-36860
-985.571
-36530.3
-989.898
-36199.2
-994.128
-35866.7
-998.262
-35532.9
-1002.3
-35197.8
-1006.25
-34861.4
-1010.1
-34523.7
-1013.87
-34184.8
-1017.55
-33844.7
-1021.14
-33503.4
-1024.64
-33161
-1028.06
-32817.4
-1031.4
-32472.8
-1034.66
-32127.1
-1037.84
-31780.4
-1040.94
-31432.7
-1043.96
-31084
-1046.91
-30734.3
-1049.79
-30383.7
-1052.59
-30032.1
-1055.32
-29679.7
-1057.98
-29326.4
-1060.58
-28972.3
-1063.1
-28617.3
-1065.56
-28261.6
-1067.96
-27905
-1070.29
-27547.7
-1072.56
-27189.7
-1074.77
-26831
-1076.92
-26471.5
-1079.02
-26111.4
-1081.05
-25750.6
-1083.03
-25389.1
-1084.95
-25027
-1086.83
-24664.4
-1088.64
-24301.1
-1090.41
-23937.3
-1092.13
-23572.8
-1093.79
-23207.9
-1095.41
-22842.4
-1096.99
-22476.4
-1098.51
-22110
-1099.99
-21743
-1101.43
-21375.6
-1102.83
-21007.7
-1104.18
-20639.4
-1105.49
-20270.6
-1106.76
-19901.4
-1107.99
-19531.9
-1109.18
-19161.9
-1110.34
-18791.6
-1111.46
-18420.9
-1112.54
-18049.9
-1113.59
-17678.5
-1114.6
-17306.8
-1115.58
-16934.7
-1116.53
-16562.4
-1117.45
-16189.8
-1118.33
-15816.8
-1119.19
-15443.6
-1120.01
-15070.2
-1120.81
-14696.4
-1121.58
-14322.5
-1122.32
-13948.3
-1123.03
-13573.8
-1123.72
-13199.1
-1124.38
-12824.3
-1125.02
-12449.2
-1125.63
-12073.9
-1126.21
-11698.4
-1126.78
-11322.8
-1127.32
-10946.9
-1127.84
-10570.9
-1128.34
-10194.8
-1128.81
-9818.45
-1129.27
-9441.99
-1129.7
-9065.4
-1130.12
-8688.66
-1130.51
-8311.81
-1130.89
-7934.83
-1131.24
-7557.73
-1131.58
-7180.53
-1131.91
-6803.23
-1132.21
-6425.83
-1132.5
-6048.33
-1132.77
-5670.75
-1133.03
-5293.09
-1133.27
-4915.35
-1133.5
-4537.55
-1133.71
-4159.67
-1133.91
-3781.73
-1134.09
-3403.74
-1134.26
-3025.69
-1134.42
-2647.59
-1134.56
-2269.45
-1134.69
-1891.27
-1134.8
-1513.06
-1134.9
-1134.82
-1134.99
-756.562
-1135.05
-378.284
-1135.1
-1135.12
-1086.06
4508.78
-2146.7
4388.77
-3160.41
4161.98
-4113.88
3873.01
-5003.16
3570.36
-5832.35
3293.79
-6610.92
3067.81
-7350.63
2900.96
-8062.97
2789.6
-8757.66
2723.24
-9442.01
2689.27
-10121
2676.13
-10797.7
2674.8
-11473.7
2678.99
-12149.7
2684.78
-12825.9
2690
-13502.1
2693.58
-14178.1
2695.12
-14853.3
2694.58
-15527.6
2692.07
-16200.5
2687.78
-16871.7
2681.89
-17540.9
2674.57
-18207.8
2665.97
-18872.1
2656.22
-19533.6
2645.43
-20192.1
2633.67
-20847.4
2621.03
-21499.2
2607.58
-22147.5
2593.35
-22792
2578.41
-23432.5
2562.79
-24069
2546.53
-24701.2
2529.66
-25329
2512.2
-25952.4
2494.18
-26571
2475.63
-27184.9
2456.57
-27793.9
2437
-28397.8
2416.96
-28996.7
2396.46
-29590.2
2375.51
-30178.5
2354.13
-30761.3
2332.33
-31338.5
2310.13
-31910.1
2287.54
-32475.9
2264.56
-33035.9
2241.22
-33589.9
2217.52
-34138
2193.48
-34680
2169.1
-35215.7
2144.41
-35745.3
2119.39
-36268.5
2094.08
-36785.3
2068.48
-37295.6
2042.59
-37799.4
2016.44
-38296.6
1990.02
-38787.1
1963.36
-39270.9
1936.45
-39748
1909.31
-40218.1
1881.95
-40681.4
1854.37
-41137.8
1826.6
-41587.1
1798.63
-42029.5
1770.47
-42464.7
1742.15
-42892.9
1713.66
-43313.8
1685.01
-43727.6
1656.21
-44134.2
1627.28
-44533.5
1598.22
-44925.4
1569.04
-45310.1
1539.75
-45687.5
1510.36
-46057.4
1480.87
-46420
1451.3
-46775.2
1421.65
-47122.9
1391.94
-47463.3
1362.16
-47796.1
1332.34
-48121.5
1302.47
-48439.5
1272.57
-48749.9
1242.65
-49052.9
1212.7
-49348.4
1182.75
-49636.4
1152.79
-49916.9
1122.84
-50190
1092.9
-50455.5
1062.98
-50713.6
1033.08
-50964.3
1003.23
-51207.5
973.413
-51443.3
943.647
-51671.6
913.936
-51892.5
884.289
-52106.1
854.711
-52312.3
825.21
-52511.1
795.791
-52702.6
766.46
-52886.8
737.225
-53063.8
708.091
-53233.4
679.064
-53395.9
650.15
-53551.2
621.354
-53699.3
592.683
-53840.3
564.141
-53974.1
535.734
-54101
507.467
-54220.8
479.346
-54333.6
451.374
-54439.4
423.557
-54538.4
395.9
-54630.5
368.406
-54715.8
341.081
-54794.2
313.929
-54866
286.953
-54931.1
260.158
-54989.5
233.547
-55041.3
207.125
-55086.6
180.894
-55125.3
154.859
-55157.6
129.022
-55183.5
103.387
-55203.1
77.9562
-55216.4
52.7336
-55223.4
27.7214
-55224.2
2.92236
-55218.9
-21.6609
-55207.5
-46.0261
-55190
-70.1709
-55166.6
-94.0931
-55137.3
-117.791
-55102.1
-141.262
-55061.1
-164.504
-55014.4
-187.517
-54962
-210.298
-54903.9
-232.846
-54840.3
-255.159
-54771.2
-277.237
-54696.6
-299.078
-54616.6
-320.681
-54531.3
-342.045
-54440.7
-363.17
-54344.9
-384.055
-54243.9
-404.698
-54137.8
-425.101
-54026.7
-445.261
-53910.7
-465.18
-53789.7
-484.857
-53663.8
-504.291
-53533.2
-523.482
-53397.9
-542.431
-53257.8
-561.139
-53113.2
-579.604
-52964
-597.827
-52810.3
-615.809
-52652.2
-633.551
-52489.7
-651.052
-52322.9
-668.313
-52151.9
-685.336
-51976.7
-702.12
-51797.3
-718.667
-51613.9
-734.977
-51426.4
-751.052
-51235
-766.893
-51039.7
-782.5
-50840.5
-797.875
-50637.6
-813.019
-50431
-827.933
-50220.6
-842.619
-50006.7
-857.078
-49789.2
-871.311
-49568.2
-885.319
-49343.8
-899.106
-49116
-912.671
-48884.8
-926.016
-48650.4
-939.143
-48412.8
-952.055
-48172
-964.752
-47928
-977.235
-47681
-989.508
-47431
-1001.57
-47178
-1013.43
-46922.1
-1025.08
-46663.4
-1036.53
-46401.8
-1047.77
-46137.5
-1058.82
-45870.5
-1069.67
-45600.8
-1080.32
-45328.5
-1090.78
-45053.6
-1101.05
-44776.2
-1111.12
-44496.4
-1121.01
-44214.1
-1130.72
-43929.4
-1140.24
-43642.5
-1149.58
-43353.2
-1158.74
-43061.7
-1167.72
-42767.9
-1176.53
-42472
-1185.17
-42174
-1193.64
-41874
-1201.93
-41571.9
-1210.06
-41267.8
-1218.03
-40961.7
-1225.83
-40653.8
-1233.48
-40343.9
-1240.97
-40032.3
-1248.3
-39718.8
-1255.48
-39403.6
-1262.51
-39086.7
-1269.38
-38768.1
-1276.12
-38447.8
-1282.7
-38126
-1289.15
-37802.5
-1295.45
-37477.5
-1301.62
-37151
-1307.65
-36823.1
-1313.54
-36493.6
-1319.31
-36162.8
-1324.94
-35830.6
-1330.44
-35497.1
-1335.82
-35162.2
-1341.08
-34826.1
-1346.22
-34488.7
-1351.23
-34150.1
-1356.13
-33810.3
-1360.91
-33469.3
-1365.58
-33127.1
-1370.13
-32783.9
-1374.58
-32439.6
-1378.92
-32094.2
-1383.15
-31747.8
-1387.28
-31400.4
-1391.31
-31052
-1395.24
-30702.6
-1399.07
-30352.3
-1402.8
-30001.1
-1406.43
-29649
-1409.98
-29296
-1413.43
-28942.2
-1416.8
-28587.6
-1420.07
-28232.2
-1423.26
-27876
-1426.37
-27519
-1429.39
-27161.3
-1432.33
-26802.9
-1435.2
-26443.8
-1437.98
-26084
-1440.69
-25723.5
-1443.33
-25362.4
-1445.89
-25000.7
-1448.38
-24638.4
-1450.8
-24275.5
-1453.16
-23912
-1455.44
-23547.9
-1457.66
-23183.3
-1459.82
-22818.2
-1461.91
-22452.6
-1463.94
-22086.5
-1465.91
-21719.9
-1467.83
-21352.8
-1469.68
-20985.3
-1471.48
-20617.4
-1473.23
-20249
-1474.92
-19880.2
-1476.56
-19511
-1478.15
-19141.4
-1479.69
-18771.5
-1481.18
-18401.2
-1482.62
-18030.5
-1484.01
-17659.5
-1485.36
-17288.2
-1486.67
-16916.5
-1487.93
-16544.6
-1489.15
-16172.3
-1490.33
-15799.8
-1491.46
-15427
-1492.56
-15053.9
-1493.62
-14680.6
-1494.64
-14307
-1495.63
-13933.2
-1496.58
-13559.1
-1497.49
-13184.9
-1498.37
-12810.4
-1499.22
-12435.7
-1500.03
-12060.8
-1500.82
-11685.7
-1501.57
-11310.5
-1502.29
-10935.1
-1502.98
-10559.5
-1503.64
-10183.7
-1504.27
-9807.8
-1504.88
-9431.74
-1505.45
-9055.55
-1506.01
-8679.22
-1506.53
-8302.77
-1507.03
-7926.2
-1507.51
-7549.51
-1507.96
-7172.72
-1508.39
-6795.82
-1508.8
-6418.83
-1509.18
-6041.75
-1509.54
-5664.58
-1509.88
-5287.33
-1510.2
-4910
-1510.51
-4532.6
-1510.79
-4155.14
-1511.05
-3777.61
-1511.3
-3400.03
-1511.52
-3022.39
-1511.73
-2644.71
-1511.92
-2266.98
-1512.09
-1889.21
-1512.25
-1511.42
-1512.38
-1133.59
-1512.49
-755.74
-1512.57
-377.876
-1512.64
-1512.67
-1057.03
5565.49
-2091.78
5423.21
-3086.01
5155.89
-4028
4814.7
-4913.63
4455.7
-5745.61
4125.49
-6531.39
3853.32
-7280.7
3649.99
-8003.36
3512
-8707.97
3427.58
-9401.18
3382.21
-10087.7
3362.39
-10770.6
3357.4
-11451.6
3359.7
-12131.5
3364.5
-12810.9
3369.06
-13489.6
3371.99
-14167.4
3372.72
-14844.2
3371.11
-15519.7
3367.25
-16193.5
3361.32
-16865.4
3353.51
-17535.1
3344.01
-18202.4
3332.98
-18867
3320.56
-19528.7
3306.87
-20187.4
3292.02
-20842.7
3276.09
-21494.6
3259.16
-22142.8
3241.29
-22787.2
3222.54
-23427.7
3202.95
-24064
3182.56
-24696
3161.42
-25323.7
3139.56
-25946.8
3117
-26565.2
3093.78
-27178.9
3069.92
-27787.6
3045.44
-28391.3
3020.36
-28989.9
2994.72
-29583.2
2968.51
-30171.1
2941.77
-30753.6
2914.51
-31330.5
2886.74
-31901.8
2858.49
-32467.3
2829.76
-33027
2800.57
-33580.7
2770.94
-34128.4
2740.88
-34670.1
2710.41
-35205.5
2679.53
-35734.7
2648.26
-36257.6
2616.61
-36774
2584.61
-37284
2552.25
-37787.4
2519.55
-38284.3
2486.53
-38774.4
2453.19
-39257.9
2419.55
-39734.5
2385.63
-40204.4
2351.43
-40667.3
2316.96
-41123.3
2282.24
-41572.3
2247.28
-42014.2
2212.09
-42449.1
2176.68
-42876.9
2141.07
-43297.5
2105.26
-43710.9
2069.27
-44117
2033.1
-44516
1996.78
-44907.6
1960.31
-45291.9
1923.69
-45668.8
1886.96
-46038.4
1850.1
-46400.6
1813.14
-46755.4
1776.09
-47102.8
1738.95
-47442.7
1701.74
-47775.2
1664.46
-48100.3
1627.13
-48417.8
1589.76
-48727.9
1552.36
-49030.5
1514.94
-49325.6
1477.5
-49613.3
1440.06
-49893.4
1402.62
-50166.1
1365.2
-50431.3
1327.81
-50689
1290.45
-50939.3
1253.14
-51182.2
1215.88
-51417.6
1178.68
-51645.6
1141.55
-51866.1
1104.5
-52079.3
1067.53
-52285.2
1030.67
-52483.7
993.901
-52674.8
957.247
-52858.7
920.713
-53035.3
884.304
-53204.6
848.03
-53366.7
811.897
-53521.7
775.913
-53669.5
740.084
-53810.1
704.417
-53943.7
668.919
-54070.2
633.596
-54189.7
598.455
-54302.2
563.502
-54407.7
528.742
-54506.4
494.182
-54598.2
459.827
-54683.1
425.682
-54761.3
391.753
-54832.8
358.045
-54897.6
324.564
-54955.7
291.313
-55007.2
258.297
-55052.2
225.521
-55090.7
192.99
-55122.8
160.706
-55148.4
128.675
-55167.7
96.9004
-55180.7
65.3852
-55187.5
34.1332
-55188.1
3.14776
-55182.5
-27.5679
-55170.9
-58.0109
-55153.2
-88.1783
-55129.6
-118.067
-55100.1
-147.675
-55064.7
-177
-55023.5
-206.04
-54976.5
-234.791
-54923.9
-263.254
-54865.7
-291.424
-54801.9
-319.302
-54732.5
-346.885
-54657.8
-374.172
-54577.6
-401.161
-54492.1
-427.853
-54401.4
-454.244
-54305.4
-480.336
-54204.3
-506.126
-54098.1
-531.615
-53986.9
-556.801
-53870.7
-581.685
-53749.6
-606.266
-53623.6
-630.544
-53492.9
-654.52
-53357.4
-678.192
-53217.3
-701.561
-53072.5
-724.628
-52923.3
-747.393
-52769.5
-769.856
-52611.3
-792.019
-52448.8
-813.881
-52281.9
-835.443
-52110.8
-856.707
-51935.5
-877.674
-51756.1
-898.343
-51572.6
-918.717
-51385.1
-938.797
-51193.7
-958.584
-50998.3
-978.079
-50799.2
-997.283
-50596.2
-1016.2
-50389.6
-1034.83
-50179.2
-1053.17
-49965.3
-1071.23
-49747.8
-1089.01
-49526.9
-1106.51
-49302.5
-1123.73
-49074.7
-1140.67
-48843.6
-1157.34
-48609.2
-1173.73
-48371.6
-1189.86
-48130.8
-1205.72
-47886.9
-1221.31
-47640
-1236.64
-47390
-1251.71
-47137.1
-1266.51
-46881.3
-1281.06
-46622.6
-1295.36
-46361.1
-1309.41
-46096.9
-1323.2
-45830
-1336.75
-45560.4
-1350.05
-45288.2
-1363.12
-45013.4
-1375.94
-44736.2
-1388.52
-44456.4
-1400.87
-44174.3
-1412.99
-43889.8
-1424.88
-43602.9
-1436.55
-43313.8
-1447.99
-43022.4
-1459.21
-42728.8
-1470.21
-42433.1
-1480.99
-42135.2
-1491.56
-41835.3
-1501.92
-41533.4
-1512.08
-41229.5
-1522.02
-40923.6
-1531.77
-40615.8
-1541.32
-40306.2
-1550.67
-39994.7
-1559.82
-39681.5
-1568.78
-39366.5
-1577.56
-39049.7
-1586.15
-38731.3
-1594.55
-38411.3
-1602.78
-38089.6
-1610.82
-37766.4
-1618.69
-37441.6
-1626.39
-37115.4
-1633.92
-36787.6
-1641.28
-36458.4
-1648.48
-36127.9
-1655.51
-35795.9
-1662.38
-35462.6
-1669.1
-35128
-1675.66
-34792.1
-1682.07
-34455
-1688.34
-34116.6
-1694.45
-33777.1
-1700.42
-33436.3
-1706.25
-33094.5
-1711.94
-32751.5
-1717.49
-32407.5
-1722.9
-32062.4
-1728.19
-31716.2
-1733.34
-31369.1
-1738.37
-31021
-1743.27
-30671.9
-1748.05
-30321.9
-1752.71
-29971
-1757.25
-29619.2
-1761.67
-29266.5
-1765.98
-28913
-1770.18
-28558.7
-1774.27
-28203.6
-1778.25
-27847.7
-1782.13
-27491.1
-1785.9
-27133.7
-1789.58
-26775.6
-1793.15
-26416.8
-1796.63
-26057.4
-1800.01
-25697.2
-1803.3
-25336.5
-1806.5
-24975.1
-1809.6
-24613.1
-1812.63
-24250.5
-1815.56
-23887.4
-1818.41
-23523.7
-1821.18
-23159.4
-1823.87
-22794.7
-1826.49
-22429.4
-1829.02
-22063.6
-1831.48
-21697.4
-1833.87
-21330.7
-1836.19
-20963.5
-1838.43
-20595.9
-1840.61
-20227.9
-1842.72
-19859.5
-1844.77
-19490.6
-1846.75
-19121.4
-1848.67
-18751.9
-1850.53
-18381.9
-1852.32
-18011.6
-1854.06
-17641
-1855.75
-17270
-1857.38
-16898.8
-1858.95
-16527.2
-1860.47
-16155.3
-1861.94
-15783.2
-1863.36
-15410.7
-1864.73
-15038
-1866.05
-14665.1
-1867.33
-14291.9
-1868.56
-13918.5
-1869.74
-13544.8
-1870.88
-13170.9
-1871.98
-12796.8
-1873.04
-12422.5
-1874.05
-12048
-1875.03
-11673.3
-1875.96
-11298.5
-1876.86
-10923.4
-1877.72
-10548.2
-1878.55
-10172.9
-1879.34
-9797.35
-1880.09
-9421.7
-1880.81
-9045.9
-1881.5
-8669.97
-1882.16
-8293.92
-1882.78
-7917.74
-1883.37
-7541.46
-1883.94
-7165.06
-1884.47
-6788.57
-1884.98
-6411.97
-1885.46
-6035.29
-1885.91
-5658.52
-1886.34
-5281.67
-1886.74
-4904.75
-1887.11
-4527.75
-1887.46
-4150.69
-1887.79
-3773.57
-1888.1
-3396.39
-1888.38
-3019.16
-1888.64
-2641.88
-1888.88
-2264.55
-1889.09
-1887.19
-1889.28
-1509.8
-1889.45
-1132.37
-1889.59
-754.93
-1889.69
-377.469
-1889.77
-1889.81
-1028.45
6593.62
-2037.77
6432.21
-3012.59
6130.41
-3942.72
5744.53
-4824
5336.69
-5657.95
4959.16
-6450.2
4645.29
-7208.56
4408.08
-7941.28
4244.46
-8655.8
4141.82
-9358.07
4084.22
-10052.5
4056.54
-10742
4046.66
-11428.5
4045.9
-12112.9
4048.68
-12795.9
4051.73
-13477.4
4053.3
-14157.6
4052.65
-14836.3
4049.52
-15513.3
4043.95
-16188.3
4036.09
-16861.2
4026.12
-17531.7
4014.24
-18199.6
4000.62
-18864.7
3985.4
-19526.9
3968.72
-20185.8
3950.69
-20841.4
3931.39
-21493.4
3910.93
-22141.8
3889.35
-22786.3
3866.74
-23426.8
3843.13
-24063.1
3818.59
-24695.1
3793.15
-25322.7
3766.85
-25945.7
3739.73
-26564.1
3711.82
-27177.6
3683.14
-27786.2
3653.73
-28389.7
3623.61
-28988.1
3592.81
-29581.2
3561.34
-30169
3529.22
-30751.3
3496.49
-31328
3463.15
-31899
3429.22
-32464.3
3394.73
-33023.8
3359.69
-33577.3
3324.12
-34124.7
3288.04
-34666.1
3251.45
-35201.3
3214.39
-35730.2
3176.86
-36252.8
3138.87
-36769
3100.45
-37278.6
3061.61
-37781.8
3022.37
-38278.3
2982.74
-38768.2
2942.73
-39251.3
2902.36
-39727.7
2861.64
-40197.2
2820.59
-40659.8
2779.23
-41115.5
2737.56
-41564.1
2695.6
-42005.8
2653.37
-42440.3
2610.88
-42867.7
2568.14
-43288
2525.17
-43701.1
2481.98
-44106.9
2438.58
-44505.5
2394.99
-44896.7
2351.22
-45280.7
2307.29
-45657.3
2263.21
-46026.5
2218.98
-46388.4
2174.63
-46742.8
2130.17
-47089.8
2085.6
-47429.4
2040.95
-47761.5
1996.22
-48086.2
1951.43
-48403.4
1906.59
-48713.1
1861.71
-49015.3
1816.8
-49310.1
1771.88