/*--------------------------------*- C++ -*----------------------------------*\
| =========                 |                                                 |
| \\      /  F ield         | OpenFOAM: The Open Source CFD Toolbox           |
|  \\    /   O peration     | Version:  2212                                  |
|   \\  /    A nd           | Website:  www.openfoam.com                      |
|    \\/     M anipulation  |                                                 |
\*---------------------------------------------------------------------------*/
FoamFile
{
    version     2.0;
    format      ascii;
    arch        "LSB;label=32;scalar=64";
    class       surfaceScalarField;
    location    "510";
    object      phi;
}
// * * * * * * * * * * * * * * * * * * * * * * * * * * * * * * * * * * * * * //

dimensions      [1 0 -1 0 0 0 0];

oriented        oriented;

internalField   nonuniform List<scalar> 
408640
(
-1884.41
1881.92
-3731.4
1846.55
-5507.67
1775.83
-7191.37
1683.27
-8774.27
1582.46
-10259.7
1484.99
-11658.7
1398.63
-12986.3
1327.1
-14257.6
1270.9
-15486.4
1228.41
-16683.8
1197.04
-17858.1
1174
-19015.3
1156.78
-20159
1143.37
-21291.6
1132.24
-22414.3
1122.31
-23527.5
1112.87
-24631.4
1103.47
-25725.6
1093.84
-26809.8
1083.86
-27883.6
1073.46
-28946.6
1062.64
-29998.4
1051.43
-31038.6
1039.84
-32066.9
1027.91
-33083
1015.69
-34086.5
1003.19
-35077.3
990.448
-36055.2
977.491
-37019.9
964.338
-37971.3
951.01
-38909.2
937.523
-39833.5
923.892
-40744
910.13
-41640.6
896.25
-42523.2
882.262
-43391.8
868.176
-44246.2
854.002
-45086.3
839.748
-45912.1
825.422
-46723.5
811.033
-47520.5
796.587
-48303
782.091
-49070.9
767.552
-49824.3
752.976
-50563
738.37
-51287.1
723.739
-51996.6
709.089
-52691.4
694.427
-53371.5
679.756
-54037
665.084
-54687.8
650.414
-55323.9
635.753
-55945.4
621.104
-56552.3
606.474
-57144.5
591.866
-57722.2
577.286
-58285.3
562.738
-58833.9
548.227
-59368.1
533.757
-59887.8
519.332
-60393.1
504.956
-60884.1
490.635
-61360.9
476.371
-61823.4
462.168
-62271.8
448.032
-62706.1
433.965
-63126.5
419.971
-63532.9
406.054
-63925.5
392.217
-64304.3
378.464
-64669.4
364.798
-65021
351.222
-65359.1
337.74
-65683.8
324.354
-65995.2
311.068
-66293.5
297.884
-66578.6
284.806
-66850.8
271.835
-67110.1
258.975
-67356.7
246.228
-67590.6
233.597
-67812
221.083
-68021.1
208.689
-68217.8
196.418
-68402.4
184.27
-68575
172.249
-68735.7
160.356
-68884.6
148.593
-69021.8
136.961
-69147.6
125.462
-69262
114.098
-69365.2
102.869
-69457.3
91.7778
-69538.4
80.8249
-69608.7
70.0114
-69668.3
59.3386
-69717.4
48.8072
-69756.1
38.4181
-69784.6
28.1722
-69802.9
18.0701
-69811.3
8.11236
-69809.9
-1.70044
-69798.8
-11.3679
-69778.1
-20.8896
-69748.1
-30.2653
-69708.9
-39.4948
-69660.5
-48.578
-69603.3
-57.5147
-69537.2
-66.3051
-69462.5
-74.9493
-69379.3
-83.4473
-69287.7
-91.7993
-69187.9
-100.006
-69080.1
-108.067
-68964.3
-115.983
-68840.8
-123.756
-68709.6
-131.384
-68570.9
-138.869
-68424.9
-146.211
-68271.7
-153.412
-68111.4
-160.471
-67944.2
-167.39
-67770.2
-174.17
-67589.6
-180.811
-67402.4
-187.315
-67208.9
-193.682
-67009.2
-199.913
-66803.3
-206.01
-66591.5
-211.974
-66373.9
-217.805
-66150.5
-223.505
-65921.6
-229.075
-65687.2
-234.517
-65447.5
-239.832
-65202.6
-245.02
-64952.6
-250.084
-64697.7
-255.024
-64438
-259.843
-64173.6
-264.541
-63904.6
-269.119
-63631.1
-273.58
-63353.3
-277.925
-63071.2
-282.155
-62785
-286.272
-62494.9
-290.277
-62200.8
-294.172
-61902.9
-297.958
-61601.3
-301.637
-61296.2
-305.21
-60987.6
-308.679
-60675.6
-312.045
-60360.4
-315.311
-60042
-318.477
-59720.5
-321.545
-59396
-324.517
-59068.7
-327.394
-58738.5
-330.178
-58405.7
-332.871
-58070.3
-335.473
-57732.3
-337.987
-57391.9
-340.414
-57049.2
-342.756
-56704.2
-345.014
-56357
-347.19
-56007.8
-349.285
-55656.5
-351.3
-55303.3
-353.239
-54948.2
-355.101
-54591.3
-356.888
-54232.7
-358.602
-53872.5
-360.245
-53510.6
-361.817
-53147.3
-363.321
-52782.5
-364.757
-52416.4
-366.128
-52049
-367.434
-51680.3
-368.677
-51310.4
-369.859
-50939.4
-370.98
-50567.3
-372.043
-50194.3
-373.048
-49820.3
-373.997
-49445.3
-374.891
-49069.6
-375.732
-48693
-376.52
-48315.7
-377.258
-47937.8
-377.946
-47559.1
-378.586
-47179.9
-379.178
-46800.2
-379.725
-46419.9
-380.227
-46039.2
-380.685
-45658
-381.101
-45276.5
-381.476
-44894.7
-381.811
-44512.5
-382.107
-44130.1
-382.365
-43747.5
-382.586
-43364.7
-382.772
-42981.7
-382.923
-42598.6
-383.04
-42215.4
-383.125
-41832.2
-383.179
-41448.9
-383.202
-41065.7
-383.196
-40682.5
-383.161
-40299.3
-383.098
-39916.3
-383.009
-39533.3
-382.894
-39150.5
-382.754
-38767.9
-382.59
-38385.4
-382.403
-38003.2
-382.194
-37621.2
-381.963
-37239.4
-381.712
-36857.9
-381.441
-36476.7
-381.151
-36095.8
-380.843
-35715.3
-380.517
-35335.1
-380.175
-34955.2
-379.816
-34575.7
-379.443
-34196.6
-379.055
-33817.9
-378.653
-33439.6
-378.238
-33061.8
-377.811
-32684.4
-377.371
-32307.4
-376.921
-31930.9
-376.46
-31554.9
-375.989
-31179.3
-375.508
-30804.3
-375.019
-30429.7
-374.522
-30055.7
-374.017
-29682.2
-373.506
-29309.1
-372.987
-28936.7
-372.463
-28564.7
-371.933
-28193.3
-371.398
-27822.4
-370.859
-27452.1
-370.316
-27082.3
-369.77
-26713
-369.22
-26344.4
-368.668
-25976.2
-368.114
-25608.7
-367.558
-25241.7
-367.001
-24875.2
-366.443
-24509.3
-365.884
-24144
-365.326
-23779.2
-364.768
-23415
-364.21
-23051.4
-363.654
-22688.3
-363.099
-22325.7
-362.546
-21963.7
-361.995
-21602.3
-361.447
-21241.4
-360.901
-20881.1
-360.359
-20521.3
-359.82
-20162
-359.284
-19803.3
-358.753
-19445.1
-358.226
-19087.4
-357.704
-18730.3
-357.186
-18373.6
-356.674
-18017.5
-356.167
-17661.8
-355.666
-17306.7
-355.17
-16952.1
-354.681
-16597.9
-354.198
-16244.2
-353.722
-15891
-353.253
-15538.3
-352.79
-15186
-352.335
-14834.2
-351.887
-14482.8
-351.447
-14131.8
-351.014
-13781.3
-350.59
-13431.2
-350.174
-13081.5
-349.766
-12732.2
-349.366
-12383.3
-348.976
-12034.7
-348.594
-11686.6
-348.221
-11338.8
-347.857
-10991.4
-347.502
-10644.3
-347.157
-10297.5
-346.821
-9951.11
-346.495
-9605.01
-346.179
-9259.22
-345.872
-8913.72
-345.576
-8568.52
-345.29
-8223.59
-345.014
-7878.93
-344.748
-7534.52
-344.492
-7190.36
-344.247
-6846.44
-344.013
-6502.74
-343.79
-6159.25
-343.577
-5815.97
-343.375
-5472.88
-343.184
-5129.97
-343.005
-4787.23
-342.836
-4444.65
-342.679
-4102.21
-342.534
-3759.91
-342.4
-3417.73
-342.278
-3075.66
-342.168
-2733.69
-342.071
-2391.8
-341.985
-2049.99
-341.912
-1708.24
-341.851
-1366.54
-341.802
-1024.88
-341.765
-683.239
-341.74
-341.616
-341.725
-341.718
-1857.23
3738.73
-3681.01
3669.9
-5440.37
3534.76
-7114.67
3357.13
-8695.42
3162.77
-10184.4
2973.57
-11590.9
2804.65
-12927.7
2663.51
-14208.7
2551.52
-15446.6
2465.92
-16651.9
2401.98
-17832.8
2354.48
-18995
2318.65
-20142.6
2290.56
-21277.9
2267.22
-22402.4
2246.49
-23516.9
2226.92
-24621.3
2207.59
-25715.8
2187.94
-26800
2167.68
-27873.6
2146.67
-28936.2
2124.88
-29987.4
2102.33
-31027
2079.06
-32054.6
2055.14
-33069.9
2030.64
-34072.7
2005.6
-35062.7
1980.09
-36039.8
1954.16
-37003.6
1927.83
-37954.2
1901.16
-38891.2
1874.18
-39814.6
1846.91
-40724.2
1819.38
-41620
1791.62
-42501.7
1763.64
-43369.4
1735.47
-44222.9
1707.12
-45062.1
1678.62
-45887.1
1649.97
-46697.6
1621.19
-47493.7
1592.3
-48275.3
1563.32
-49042.4
1534.24
-49794.9
1505.1
-50532.8
1475.89
-51256.1
1446.64
-51964.7
1417.34
-52658.7
1388.02
-53338
1358.69
-54002.7
1329.35
-54652.7
1300.02
-55288
1270.71
-55908.7
1241.42
-56514.8
1212.17
-57106.2
1182.96
-57683.1
1153.81
-58245.5
1124.72
-58793.3
1095.71
-59326.7
1066.77
-59845.7
1037.93
-60350.3
1009.19
-60840.6
980.559
-61316.7
952.041
-61778.5
923.646
-62226.2
895.383
-62659.9
867.259
-63079.6
839.281
-63485.3
811.457
-63877.3
783.794
-64255.5
756.298
-64620
728.977
-64971
701.836
-65308.5
674.882
-65632.6
648.121
-65943.5
621.56
-66241.1
595.203
-66525.7
569.057
-66797.4
543.127
-67056.1
517.418
-67302.2
491.936
-67535.6
466.684
-67756.5
441.668
-67965.1
416.892
-68161.3
392.36
-68345.5
368.077
-68517.6
344.046
-68677.8
320.271
-68826.3
296.756
-68963.1
273.503
-69088.5
250.517
-69202.5
227.8
-69305.3
205.354
-69397
183.183
-69477.8
161.288
-69547.7
139.673
-69607
118.339
-69655.8
97.2872
-69694.2
76.5204
-69722.3
56.0399
-69740.4
35.847
-69748.5
15.9428
-69746.8
-3.67155
-69735.4
-22.9952
-69714.5
-42.0275
-69684.3
-60.7678
-69644.8
-79.2157
-69596.3
-97.3711
-69538.8
-115.234
-69472.5
-132.804
-69397.6
-150.081
-69314.2
-167.066
-69222.5
-183.76
-69122.6
-200.162
-69014.6
-216.274
-68898.7
-232.096
-68775
-247.63
-68643.7
-262.876
-68505
-277.836
-68358.9
-292.511
-68205.6
-306.902
-68045.2
-321.011
-67878
-334.839
-67703.9
-348.389
-67523.2
-361.661
-67336.1
-374.659
-67142.5
-387.383
-66942.8
-399.837
-66736.9
-412.021
-66525.1
-423.939
-66307.5
-435.592
-66084.1
-446.984
-65855.2
-458.116
-65620.9
-468.991
-65381.3
-479.611
-65136.4
-489.979
-64886.6
-500.098
-64631.7
-509.971
-64372.1
-519.599
-64107.8
-528.987
-63838.9
-538.137
-63565.5
-547.051
-63287.8
-555.733
-63005.8
-564.185
-62719.8
-572.411
-62429.8
-580.414
-62135.8
-588.196
-61838.1
-595.761
-61536.7
-603.112
-61231.7
-610.251
-60923.3
-617.182
-60611.5
-623.909
-60296.4
-630.433
-59978.2
-636.759
-59656.9
-642.889
-59332.7
-648.827
-59005.5
-654.575
-58675.6
-660.137
-58343
-665.516
-58007.8
-670.715
-57670.1
-675.737
-57330
-680.586
-56987.5
-685.264
-56642.8
-689.775
-56295.8
-694.121
-55946.8
-698.306
-55595.8
-702.332
-55242.9
-706.204
-54888.1
-709.923
-54531.5
-713.493
-54173.2
-716.917
-53813.2
-720.198
-53451.7
-723.338
-53088.7
-726.341
-52724.2
-729.21
-52358.4
-731.947
-51991.2
-734.556
-51622.9
-737.038
-51253.3
-739.398
-50882.6
-741.637
-50510.9
-743.758
-50138.2
-745.765
-49764.5
-747.66
-49389.9
-749.445
-49014.5
-751.123
-48638.3
-752.697
-48261.3
-754.169
-47883.7
-755.542
-47505.4
-756.818
-47126.6
-758.001
-46747.2
-759.091
-46367.3
-760.092
-45986.9
-761.006
-45606.1
-761.836
-45225
-762.583
-44843.5
-763.25
-44461.7
-763.84
-44079.7
-764.354
-43697.4
-764.794
-43315
-765.164
-42932.4
-765.464
-42549.7
-765.697
-42166.9
-765.865
-41784.1
-765.971
-41401.2
-766.015
-41018.4
-766.001
-40635.6
-765.929
-40252.8
-765.802
-39870.1
-765.622
-39487.6
-765.391
-39105.2
-765.11
-38722.9
-764.781
-38340.9
-764.405
-37959
-763.986
-37577.4
-763.523
-37196.1
-763.02
-36815
-762.477
-36434.2
-761.896
-36053.7
-761.278
-35673.6
-760.626
-35293.8
-759.94
-34914.3
-759.223
-34535.2
-758.475
-34156.5
-757.698
-33778.3
-756.894
-33400.4
-756.063
-33023
-755.208
-32646
-754.328
-32269.4
-753.427
-31893.3
-752.504
-31517.7
-751.562
-31142.6
-750.601
-30768
-749.622
-30393.8
-748.627
-30020.2
-747.617
-29647.1
-746.593
-29274.5
-745.556
-28902.4
-744.507
-28530.9
-743.447
-28159.9
-742.378
-27789.4
-741.299
-27419.5
-740.213
-27050.1
-739.119
-26681.3
-738.02
-26313
-736.916
-25945.3
-735.807
-25578.2
-734.695
-25211.6
-733.581
-24845.6
-732.464
-24480.1
-731.347
-24115.2
-730.23
-23750.9
-729.114
-23387.1
-727.999
-23023.8
-726.887
-22661.2
-725.777
-22299.1
-724.671
-21937.5
-723.569
-21576.5
-722.472
-21216
-721.381
-20856.1
-720.296
-20496.7
-719.218
-20137.9
-718.148
-19779.6
-717.086
-19421.8
-716.032
-19064.5
-714.987
-18707.8
-713.952
-18351.6
-712.928
-17995.8
-711.914
-17640.6
-710.912
-17285.9
-709.921
-16931.7
-708.943
-16578
-707.977
-16224.7
-707.025
-15871.9
-706.086
-15519.6
-705.161
-15167.7
-704.251
-14816.3
-703.355
-14465.3
-702.475
-14114.8
-701.61
-13764.7
-700.762
-13415
-699.929
-13065.7
-699.114
-12716.8
-698.315
-12368.3
-697.534
-12020.2
-696.77
-11672.5
-696.024
-11325.1
-695.296
-10978.1
-694.587
-10631.4
-693.897
-10285.1
-693.226
-9939.09
-692.574
-9593.4
-691.941
-9248.03
-691.329
-8902.95
-690.736
-8558.16
-690.163
-8213.64
-689.611
-7869.4
-689.08
-7525.41
-688.569
-7181.66
-688.08
-6838.15
-687.611
-6494.87
-687.164
-6151.8
-686.739
-5808.93
-686.335
-5466.26
-685.954
-5123.76
-685.594
-4781.44
-685.258
-4439.27
-684.944
-4097.24
-684.653
-3755.36
-684.386
-3413.59
-684.142
-3071.94
-683.922
-2730.38
-683.727
-2388.91
-683.556
-2047.51
-683.41
-1706.18
-683.288
-1364.89
-683.19
-1023.64
-683.117
-682.417
-683.066
-341.207
-683.036
-683.027
-1828.21
5566.51
-3625.93
5467.18
-5365.71
5274.1
-7028.67
5019.65
-8606.16
4739.82
-10098.6
4465.6
-11513.2
4218.8
-12860.8
4010.66
-14153.4
3843.74
-15402.5
3714.64
-16617.9
3616.97
-17807.2
3543.48
-18976.4
3487.4
-20129.3
3443.1
-21268.6
3406.21
-22396.1
3373.57
-23512.5
3342.99
-24618.3
3313.04
-25713.6
3282.84
-26798.2
3251.9
-27871.8
3219.97
-28934.3
3186.98
-29985.2
3152.92
-31024.4
3117.84
-32051.5
3081.83
-33066.2
3044.97
-34068.3
3007.35
-35057.6
2969.02
-36033.9
2930.07
-36996.9
2890.55
-37946.7
2850.52
-38882.9
2810.02
-39805.4
2769.1
-40714.2
2727.79
-41609.1
2686.14
-42490
2644.16
-43356.8
2601.9
-44209.5
2559.38
-45047.8
2516.62
-45871.9
2473.65
-46681.6
2430.48
-47476.8
2387.15
-48257.5
2343.68
-49023.8
2300.07
-49775.4
2256.36
-50512.5
2212.56
-51234.9
2168.68
-51942.7
2124.75
-52635.8
2080.78
-53314.3
2036.79
-53978.1
1992.79
-54627.3
1948.8
-55261.8
1904.84
-55881.7
1860.92
-56486.9
1817.05
-57077.6
1773.25
-57653.7
1729.53
-58215.3
1685.91
-58762.3
1642.41
-59295
1599.02
-59813.2
1555.77
-60317
1512.67
-60806.6
1469.73
-61281.9
1426.97
-61743
1384.39
-62190
1342.01
-62622.9
1299.84
-63041.9
1257.88
-63447
1216.16
-63838.2
1174.68
-64215.7
1133.45
-64579.6
1092.48
-64929.9
1051.79
-65266.8
1011.37
-65590.2
971.245
-65900.5
931.417
-66197.5
891.898
-66481.5
852.694
-66752.5
813.814
-67010.7
775.266
-67256.2
737.057
-67489
699.195
-67709.4
661.687
-67917.3
624.539
-68113.1
587.757
-68296.7
551.348
-68468.3
515.318
-68628
479.671
-68775.9
444.415
-68912.3
409.552
-69037.2
375.089
-69150.7
341.029
-69253
307.377
-69344.3
274.136
-69424.6
241.311
-69494.1
208.904
-69553
176.919
-69601.4
145.359
-69639.4
114.225
-69667.1
83.5208
-69684.8
53.2478
-69692.5
23.408
-69690.5
-5.99705
-69678.8
-34.9661
-69657.6
-63.4981
-69627
-91.5922
-69587.2
-119.248
-69538.4
-146.465
-69480.6
-173.242
-69414.1
-199.581
-69338.9
-225.481
-69255.2
-250.943
-69163.3
-275.967
-69063.1
-300.554
-68954.9
-324.706
-68838.8
-348.424
-68714.9
-371.709
-68583.4
-394.562
-68444.5
-416.986
-68298.2
-438.983
-68144.7
-460.554
-67984.2
-481.702
-67816.8
-502.43
-67642.7
-522.739
-67461.9
-542.633
-67274.6
-562.115
-67080.9
-581.187
-66881.1
-599.853
-66675.2
-618.115
-66463.3
-635.977
-66245.6
-653.443
-66022.2
-670.517
-65793.2
-687.2
-65558.9
-703.499
-65319.2
-719.416
-65074.4
-734.955
-64824.5
-750.12
-64569.6
-764.916
-64310
-779.346
-64045.7
-793.414
-63776.8
-807.126
-63503.5
-820.485
-63225.8
-833.495
-62944
-846.162
-62658
-858.489
-62368
-870.481
-62074.1
-882.143
-61776.5
-893.479
-61475.2
-904.493
-61170.3
-915.191
-60862
-925.577
-60550.3
-935.655
-60235.4
-945.431
-59917.3
-954.909
-59596.2
-964.094
-59272
-972.99
-58945.1
-981.603
-58615.3
-989.936
-58282.9
-997.995
-57947.8
-1005.78
-57610.3
-1013.31
-57270.4
-1020.57
-56928.1
-1027.58
-56583.5
-1034.34
-56236.8
-1040.85
-55888
-1047.12
-55537.2
-1053.15
-55184.5
-1058.95
-54829.9
-1064.52
-54473.6
-1069.87
-54115.5
-1074.99
-53755.8
-1079.91
-53394.5
-1084.61
-53031.7
-1089.11
-52667.5
-1093.4
-52302
-1097.5
-51935.1
-1101.41
-51567
-1105.13
-51197.7
-1108.66
-50827.3
-1112.01
-50455.9
-1115.19
-50083.4
-1118.19
-49710.1
-1121.03
-49335.8
-1123.7
-48960.7
-1126.21
-48584.8
-1128.57
-48208.1
-1130.77
-47830.8
-1132.82
-47452.9
-1134.73
-47074.3
-1136.5
-46695.3
-1138.13
-46315.7
-1139.63
-45935.6
-1141
-45555.2
-1142.24
-45174.4
-1143.35
-44793.3
-1144.35
-44411.8
-1145.23
-44030.1
-1146
-43648.2
-1146.65
-43266.1
-1147.2
-42883.9
-1147.65
-42501.6
-1148
-42119.1
-1148.25
-41736.7
-1148.4
-41354.2
-1148.46
-40971.7
-1148.44
-40589.2
-1148.33
-40206.8
-1148.14
-39824.6
-1147.86
-39442.4
-1147.51
-39060.4
-1147.09
-38678.5
-1146.59
-38296.8
-1146.03
-37915.4
-1145.39
-37534.1
-1144.7
-37153.2
-1143.94
-36772.5
-1143.12
-36392.1
-1142.25
-36012
-1141.32
-35632.2
-1140.34
-35252.8
-1139.31
-34873.7
-1138.23
-34495.1
-1137.11
-34116.8
-1135.94
-33738.9
-1134.74
-33361.4
-1133.49
-32984.4
-1132.2
-32607.8
-1130.88
-32231.6
-1129.53
-31856
-1128.15
-31480.8
-1126.73
-31106
-1125.29
-30731.8
-1123.82
-30358.1
-1122.33
-29984.9
-1120.81
-29612.1
-1119.27
-29240
-1117.72
-28868.3
-1116.14
-28497.2
-1114.55
-28126.6
-1112.95
-27756.5
-1111.33
-27387
-1109.7
-27018.1
-1108.06
-26649.7
-1106.41
-26281.8
-1104.75
-25914.5
-1103.09
-25547.8
-1101.42
-25181.6
-1099.75
-24816
-1098.07
-24451
-1096.4
-24086.5
-1094.72
-23722.5
-1093.05
-23359.2
-1091.37
-22996.3
-1089.7
-22634.1
-1088.04
-22272.4
-1086.38
-21911.2
-1084.73
-21550.6
-1083.08
-21190.6
-1081.44
-20831.1
-1079.82
-20472.1
-1078.2
-20113.7
-1076.59
-19755.8
-1075
-19398.4
-1073.42
-19041.6
-1071.85
-18685.3
-1070.3
-18329.5
-1068.76
-17974.2
-1067.24
-17619.4
-1065.74
-17265.1
-1064.25
-16911.3
-1062.79
-16558
-1061.34
-16205.1
-1059.91
-15852.8
-1058.5
-15500.9
-1057.11
-15149.4
-1055.75
-14798.4
-1054.41
-14447.9
-1053.09
-14097.7
-1051.79
-13748
-1050.52
-13398.8
-1049.27
-13049.9
-1048.04
-12701.4
-1046.85
-12353.3
-1045.67
-12005.6
-1044.53
-11658.3
-1043.41
-11311.4
-1042.32
-10964.8
-1041.26
-10618.5
-1040.22
-10272.6
-1039.21
-9927.03
-1038.24
-9581.76
-1037.29
-9236.8
-1036.37
-8892.14
-1035.48
-8547.77
-1034.62
-8203.67
-1033.79
-7859.84
-1033
-7516.26
-1032.23
-7172.94
-1031.5
-6829.84
-1030.79
-6486.98
-1030.12
-6144.32
-1029.48
-5801.87
-1028.88
-5459.61
-1028.31
-5117.53
-1027.77
-4775.62
-1027.26
-4433.87
-1026.79
-4092.26
-1026.36
-3750.79
-1025.96
-3409.44
-1025.59
-3068.2
-1025.26
-2727.06
-1024.97
-2386
-1024.71
-2045.02
-1024.49
-1704.1
-1024.31
-1363.23
-1024.16
-1022.4
-1024.05
-681.587
-1023.98
-340.791
-1023.93
-1023.92
-1790.7
7356.78
-3554.97
7231.01
-5269.52
6988.21
-6917.69
6667.38
-8490.77
6312.46
-9987.57
5961.97
-11412.8
5643.56
-12774.6
5372.09
-14082.9
5151.64
-15347.4
4978.73
-16576.8
4845.95
-17778.2
4744.52
-18957.3
4666.1
-20118.1
4603.58
-21263.6
4551.36
-22395.7
4505.29
-23515.5
4462.47
-24623.8
4420.92
-25720.7
4379.42
-26806.4
4337.22
-27880.7
4293.94
-28943.5
4249.41
-29994.6
4203.59
-31033.6
4156.52
-32060.4
4108.27
-33074.7
4058.94
-34076.4
4008.63
-35065.2
3957.42
-36040.9
3905.39
-37003.3
3852.63
-37952.4
3799.19
-38887.9
3745.15
-39809.7
3690.55
-40717.7
3635.45
-41611.8
3579.88
-42492
3523.9
-43358
3467.53
-44209.8
3410.82
-45047.4
3353.8
-45870.6
3296.49
-46679.4
3238.94
-47473.8
3181.17
-48253.7
3123.19
-49019.1
3065.05
-49769.9
3006.77
-50506.1
2948.37
-51227.6
2889.87
-51934.6
2831.3
-52626.9
2772.68
-53304.5
2714.03
-53967.5
2655.37
-54615.8
2596.73
-55249.4
2538.12
-55868.5
2479.57
-56472.9
2421.09
-57062.7
2362.7
-57638
2304.42
-58198.7
2246.27
-58744.9
2188.27
-59276.7
2130.43
-59794.1
2072.78
-60297.2
2015.33
-60785.9
1958.09
-61260.4
1901.08
-61720.7
1844.33
-62166.9
1787.83
-62599
1731.61
-63017.2
1675.69
-63421.5
1620.08
-63811.9
1564.78
-64188.7
1509.83
-64551.8
1455.22
-64901.3
1400.97
-65237.4
1347.1
-65560.1
1293.62
-65869.6
1240.53
-66165.9
1187.85
-66449.1
1135.6
-66719.4
1083.78
-66976.9
1032.4
-67221.7
981.472
-67453.8
931.007
-67673.5
881.015
-67880.8
831.502
-68075.8
782.479
-68258.8
733.953
-68429.7
685.932
-68588.8
638.424
-68736.1
591.434
-68871.8
544.971
-68996.1
499.04
-69109
453.648
-69210.7
408.799
-69301.4
364.499
-69381.1
320.752
-69450.1
277.564
-69508.4
234.939
-69556.2
192.879
-69593.6
151.389
-69620.9
110.471
-69638
70.1284
-69645.3
30.3635
-69642.7
-8.82169
-69630.5
-47.4255
-69608.8
-85.4464
-69577.8
-122.883
-69537.5
-159.736
-69488.2
-196.003
-69430
-231.685
-69363.1
-266.781
-69287.5
-301.292
-69203.5
-335.22
-69111.1
-368.563
-69010.5
-401.325
-68902
-433.506
-68785.5
-465.107
-68661.3
-496.132
-68529.5
-526.582
-68390.2
-556.459
-68243.6
-585.766
-68089.9
-614.507
-67929.1
-642.683
-67761.4
-670.298
-67586.9
-697.356
-67405.9
-723.86
-67218.4
-749.815
-67024.5
-775.223
-66824.4
-800.09
-66618.3
-824.419
-66406.2
-848.215
-66188.3
-871.483
-65964.7
-894.227
-65735.6
-916.452
-65501.1
-938.163
-65261.3
-959.366
-65016.3
-980.065
-64766.3
-1000.27
-64511.4
-1019.97
-64251.6
-1039.2
-63987.2
-1057.93
-63718.3
-1076.2
-63444.9
-1093.99
-63167.1
-1111.32
-62885.2
-1128.19
-62599.2
-1144.61
-62309.2
-1160.58
-62015.3
-1176.11
-61717.6
-1191.21
-61416.3
-1205.88
-61111.5
-1220.13
-60803.2
-1233.96
-60491.5
-1247.38
-60176.6
-1260.4
-59858.5
-1273.02
-59537.4
-1285.25
-59213.4
-1297.1
-58886.5
-1308.56
-58556.8
-1319.66
-58224.4
-1330.39
-57889.5
-1340.76
-57552.1
-1350.78
-57212.2
-1360.45
-56870.1
-1369.78
-56525.6
-1378.78
-56179.1
-1387.44
-55830.4
-1395.79
-55479.8
-1403.82
-55127.2
-1411.54
-54772.8
-1418.95
-54416.6
-1426.07
-54058.7
-1432.9
-53699.1
-1439.43
-53338.1
-1445.69
-52975.5
-1451.68
-52611.5
-1457.4
-52246.1
-1462.85
-51879.5
-1468.05
-51511.6
-1472.99
-51142.5
-1477.69
-50772.4
-1482.15
-50401.2
-1486.38
-50029
-1490.37
-49655.8
-1494.15
-49281.8
-1497.7
-48906.9
-1501.04
-48531.3
-1504.17
-48154.9
-1507.1
-47777.9
-1509.83
-47400.2
-1512.37
-47022
-1514.72
-46643.2
-1516.88
-46263.9
-1518.87
-45884.2
-1520.69
-45504
-1522.33
-45123.5
-1523.82
-44742.7
-1525.14
-44361.6
-1526.3
-43980.2
-1527.32
-43598.6
-1528.19
-43216.9
-1528.92
-42835
-1529.51
-42452.9
-1529.96
-42070.9
-1530.29
-41688.7
-1530.49
-41306.6
-1530.57
-40924.4
-1530.53
-40542.3
-1530.38
-40160.3
-1530.12
-39778.4
-1529.75
-39396.5
-1529.28
-39014.9
-1528.71
-38633.4
-1528.04
-38252.1
-1527.28
-37871
-1526.44
-37490.1
-1525.5
-37109.5
-1524.49
-36729.2
-1523.4
-36349.2
-1522.23
-35969.5
-1520.99
-35590.1
-1519.68
-35211
-1518.3
-34832.4
-1516.86
-34454.1
-1515.36
-34076.2
-1513.8
-33698.7
-1512.19
-33321.6
-1510.52
-32945
-1508.81
-32568.8
-1507.04
-32193
-1505.24
-31817.7
-1503.39
-31442.9
-1501.5
-31068.6
-1499.57
-30694.8
-1497.61
-30321.5
-1495.62
-29948.6
-1493.6
-29576.3
-1491.54
-29204.6
-1489.47
-28833.3
-1487.37
-28462.6
-1485.24
-28092.4
-1483.1
-27722.8
-1480.94
-27353.7
-1478.77
-26985.1
-1476.58
-26617.2
-1474.38
-26249.7
-1472.17
-25882.9
-1469.95
-25516.5
-1467.72
-25150.8
-1465.49
-24785.6
-1463.26
-24421
-1461.02
-24056.9
-1458.79
-23693.4
-1456.56
-23330.4
-1454.32
-22968
-1452.1
-22606.2
-1449.88
-22244.9
-1447.66
-21884.2
-1445.46
-21524
-1443.27
-21164.4
-1441.08
-20805.3
-1438.91
-20446.8
-1436.76
-20088.8
-1434.61
-19731.3
-1432.49
-19374.4
-1430.38
-19018
-1428.29
-18662.1
-1426.22
-18306.7
-1424.17
-17951.8
-1422.15
-17597.5
-1420.14
-17243.6
-1418.16
-16890.2
-1416.2
-16537.3
-1414.27
-16184.9
-1412.37
-15833
-1410.49
-15481.5
-1408.64
-15130.5
-1406.82
-14779.9
-1405.03
-14429.8
-1403.27
-14080.1
-1401.54
-13730.8
-1399.84
-13382
-1398.18
-13033.5
-1396.54
-12685.5
-1394.95
-12337.8
-1393.39
-11990.6
-1391.86
-11643.7
-1390.37
-11297.2
-1388.91
-10951
-1387.49
-10605.2
-1386.11
-10259.7
-1384.77
-9914.55
-1383.47
-9569.71
-1382.2
-9225.18
-1380.98
-8880.95
-1379.79
-8537.01
-1378.65
-8193.34
-1377.54
-7849.94
-1376.48
-7506.8
-1375.46
-7163.9
-1374.48
-6821.24
-1373.54
-6478.8
-1372.65
-6136.57
-1371.8
-5794.55
-1370.99
-5452.72
-1370.23
-5111.07
-1369.51
-4769.6
-1368.84
-4428.27
-1368.21
-4087.1
-1367.63
-3746.06
-1367.09
-3405.14
-1366.61
-3064.33
-1366.17
-2723.62
-1365.78
-2382.99
-1365.44
-2042.44
-1365.14
-1701.95
-1364.9
-1361.51
-1364.7
-1021.11
-1364.56
-680.73
-1364.46
-340.364
-1364.4
-1364.39
-1759.53
9115.88
-3495.83
8966.87
-5189.07
8681.01
-6824.45
8302.32
-8393.39
7880.95
-9893.55
7461.7
-11327.7
7077.24
-12701.9
6745.87
-14024
6473.38
-15302.4
6256.68
-16544.6
6087.79
-17757.3
5956.87
-18945.9
5854.33
-20114.5
5771.81
-21266.2
5702.64
-22403
5641.76
-23526.4
5585.53
-24637.3
5531.46
-25736.2
5477.91
-26823.2
5423.88
-27898.4
5368.8
-28961.7
5312.39
-30013.1
5254.54
-31052.2
5195.27
-32078.9
5134.62
-33093
5072.7
-34094.4
5009.6
-35082.7
4945.41
-36058
4880.25
-37019.9
4814.18
-37968.4
4747.3
-38903.3
4679.67
-39824.5
4611.36
-40731.8
4542.43
-41625.2
4472.93
-42504.6
4402.92
-43369.9
4332.43
-44221
4261.52
-45057.8
4190.22
-45880.3
4118.57
-46688.3
4046.61
-47481.9
3974.38
-48261
3901.91
-49025.6
3829.23
-49775.6
3756.37
-50510.9
3683.36
-51231.7
3610.24
-51937.8
3537.02
-52629.2
3463.75
-53306
3390.44
-53968.2
3317.12
-54615.6
3243.82
-55248.5
3170.56
-55866.6
3097.37
-56470.2
3024.28
-57059.2
2951.3
-57633.6
2878.46
-58193.5
2805.78
-58738.9
2733.29
-59269.9
2661
-59786.4
2588.95
-60288.6
2517.14
-60776.5
2445.6
-61250.1
2374.36
-61709.6
2303.42
-62154.9
2232.82
-62586.2
2162.56
-63003.6
2092.67
-63407
2023.16
-63796.7
1954.06
-64172.6
1885.38
-64534.9
1817.14
-64883.6
1749.34
-65218.9
1682.02
-65540.8
1615.18
-65849.5
1548.84
-66145
1483.01
-66427.4
1417.71
-66696.9
1352.95
-66953.6
1288.75
-67197.6
1225.11
-67429
1162.05
-67647.9
1099.58
-67854.4
1037.71
-68048.7
976.45
-68230.9
915.814
-68401.1
855.809
-68559.4
796.445
-68706.1
737.731
-68841.1
679.674
-68964.6
622.283
-69076.8
565.566
-69177.9
509.528
-69267.9
454.177
-69346.9
399.518
-69415.2
345.557
-69472.9
292.3
-69520
239.75
-69556.8
187.912
-69583.4
136.791
-69600
86.3882
-69606.6
36.7079
-69603.4
-12.2476
-69590.6
-60.4762
-69568.3
-107.976
-69536.7
-154.746
-69495.9
-200.784
-69446.1
-246.092
-69387.4
-290.667
-69319.9
-334.51
-69243.8
-377.622
-69159.2
-420.004
-69066.4
-461.656
-68965.3
-502.581
-68856.3
-542.779
-68739.3
-582.254
-68614.7
-621.007
-68482.4
-659.042
-68342.7
-696.361
-68195.7
-732.967
-68041.5
-768.865
-67880.4
-804.058
-67712.3
-838.549
-67537.5
-872.344
-67356.1
-905.447
-67168.2
-937.863
-66974
-969.596
-66773.6
-1000.65
-66567.1
-1031.04
-66354.8
-1060.76
-66136.6
-1089.81
-65912.7
-1118.22
-65683.4
-1145.97
-65448.6
-1173.08
-65208.5
-1199.56
-64963.3
-1225.41
-64713.1
-1250.63
-64457.9
-1275.24
-64198
-1299.24
-63933.4
-1322.64
-63664.2
-1345.45
-63390.7
-1367.66
-63112.8
-1389.3
-62830.7
-1410.37
-62544.6
-1430.86
-62254.4
-1450.8
-61960.4
-1470.2
-61662.7
-1489.04
-61361.3
-1507.36
-61056.3
-1525.14
-60748
-1542.41
-60436.2
-1559.16
-60121.3
-1575.41
-59803.2
-1591.17
-59482.1
-1606.44
-59158
-1621.22
-58831.1
-1635.54
-58501.4
-1649.38
-58169
-1662.78
-57834.1
-1675.72
-57496.7
-1688.22
-57156.9
-1700.29
-56814.8
-1711.94
-56470.4
-1723.16
-56123.9
-1733.98
-55775.3
-1744.39
-55424.8
-1754.41
-55072.3
-1764.04
-54717.9
-1773.29
-54361.8
-1782.17
-54004.1
-1790.68
-53644.6
-1798.84
-53283.7
-1806.65
-52921.3
-1814.12
-52557.4
-1821.25
-52192.2
-1828.05
-51825.7
-1834.53
-51458
-1840.7
-51089.1
-1846.56
-50719.1
-1852.12
-50348.1
-1857.38
-49976.1
-1862.37
-49603.1
-1867.07
-49229.3
-1871.49
-48854.7
-1875.66
-48479.3
-1879.56
-48103.1
-1883.21
-47726.3
-1886.61
-47348.9
-1889.77
-46970.9
-1892.69
-46592.3
-1895.39
-46213.3
-1897.87
-45833.8
-1900.12
-45453.9
-1902.17
-45073.7
-1904.01
-44693.1
-1905.65
-44312.3
-1907.1
-43931.2
-1908.36
-43549.9
-1909.44
-43168.4
-1910.34
-42786.8
-1911.07
-42405.1
-1911.63
-42023.3
-1912.03
-41641.5
-1912.27
-41259.6
-1912.36
-40877.8
-1912.31
-40496
-1912.11
-40114.3
-1911.77
-39732.7
-1911.31
-39351.2
-1910.71
-38969.9
-1909.99
-38588.7
-1909.15
-38207.8
-1908.2
-37827
-1907.13
-37446.5
-1905.96
-37066.3
-1904.69
-36686.3
-1903.32
-36306.6
-1901.85
-35927.3
-1900.3
-35548.3
-1898.65
-35169.6
-1896.93
-34791.3
-1895.12
-34413.4
-1893.24
-34035.8
-1891.29
-33658.7
-1889.27
-33282
-1887.18
-32905.7
-1885.03
-32529.9
-1882.82
-32154.6
-1880.56
-31779.7
-1878.24
-31405.3
-1875.88
-31031.3
-1873.47
-30657.9
-1871.01
-30285
-1868.52
-29912.5
-1865.99
-29540.6
-1863.42
-29169.2
-1860.82
-28798.4
-1858.19
-28428.1
-1855.54
-28058.3
-1852.86
-27689.1
-1850.16
-27320.4
-1847.44
-26952.2
-1844.7
-26584.7
-1841.94
-26217.6
-1839.18
-25851.2
-1836.4
-25485.3
-1833.62
-25119.9
-1830.83
-24755.1
-1828.03
-24390.9
-1825.24
-24027.3
-1822.44
-23664.2
-1819.65
-23301.6
-1816.86
-22939.7
-1814.08
-22578.2
-1811.3
-22217.4
-1808.53
-21857.1
-1805.77
-21497.3
-1803.03
-21138.1
-1800.3
-20779.5
-1797.59
-20421.4
-1794.89
-20063.8
-1792.21
-19706.7
-1789.55
-19350.2
-1786.92
-18994.2
-1784.31
-18638.8
-1781.72
-18283.8
-1779.16
-17929.4
-1776.62
-17575.4
-1774.11
-17222
-1771.64
-16869
-1769.19
-16516.6
-1766.78
-16164.6
-1764.39
-15813.1
-1762.05
-15462
-1759.73
-15111.4
-1757.46
-14761.3
-1755.22
-14411.6
-1753.02
-14062.3
-1750.86
-13713.5
-1748.73
-13365.1
-1746.65
-13017.1
-1744.61
-12669.5
-1742.62
-12322.3
-1740.66
-11975.4
-1738.76
-11629
-1736.89
-11282.9
-1735.07
-10937.1
-1733.3
-10591.8
-1731.57
-10246.7
-1729.9
-9901.98
-1728.27
-9557.58
-1726.69
-9213.48
-1725.15
-8869.68
-1723.67
-8526.17
-1722.24
-8182.93
-1720.86
-7839.97
-1719.53
-7497.26
-1718.26
-7154.79
-1717.03
-6812.56
-1715.86
-6470.56
-1714.74
-6128.77
-1713.68
-5787.18
-1712.67
-5445.78
-1711.72
-5104.57
-1710.82
-4763.52
-1709.98
-4422.63
-1709.19
-4081.89
-1708.47
-3741.28
-1707.8
-3400.8
-1707.19
-3060.43
-1706.64
-2720.15
-1706.15
-2379.96
-1705.73
-2039.84
-1705.36
-1699.79
-1705.06
-1359.78
-1704.81
-1019.81
-1704.63
-679.862
-1704.5
-339.929
-1704.43
-1704.42
-1729.36
10844.8
-3438.71
10675.8
-5111.29
10353.1
-6734.06
9924.64
-8298.7
9445.14
-9801.9
8964.45
-11244.7
8519.56
-12631.1
8131.91
-13967.3
7809.16
-15260
7548.95
-16515.7
7343.16
-17740.6
7181.34
-18939.6
7052.97
-20116.9
6948.71
-21275.5
6860.94
-22417.9
6783.78
-23545.7
6712.92
-24659.9
6645.3
-25761.2
6578.89
-26850.1
6512.39
-27926.7
6445
-28990.9
6376.31
-30042.9
6306.13
-31082.4
6234.4
-32109.3
6161.16
-33123.4
6086.48
-34124.7
6010.47
-35112.9
5933.21
-36087.8
5854.82
-37049.4
5775.39
-37997.4
5695
-38931.9
5613.73
-39852.6
5531.66
-40759.4
5448.87
-41652.2
5365.4
-42531
5281.32
-43395.6
5196.69
-44246.1
5111.55
-45082.2
5025.95
-45903.9
4939.95
-46711.3
4853.57
-47504.1
4766.87
-48282.5
4679.88
-49046.3
4592.64
-49795.5
4505.19
-50530.1
4417.57
-51250
4329.81
-51955.3
4241.94
-52646
4154
-53321.9
4066.02
-53983.2
3978.03
-54629.9
3890.07
-55261.9
3802.16
-55879.2
3714.33
-56481.9
3626.61
-57070
3539.04
-57643.6
3451.63
-58202.6
3364.42
-58747.1
3277.43
-59277.2
3190.69
-59792.8
3104.22
-60294.1
3018.06
-60781.1
2932.22
-61253.9
2846.73
-61712.4
2761.62
-62156.9
2676.9
-62587.3
2592.6
-63003.7
2508.74
-63406.3
2425.35
-63795
2342.44
-64170
2260.03
-64531.4
2178.15
-64879.2
2096.81
-65213.6
2016.04
-65534.6
1935.84
-65842.4
1856.25
-66137