/*--------------------------------*- C++ -*----------------------------------*\
| =========                 |                                                 |
| \\      /  F ield         | OpenFOAM: The Open Source CFD Toolbox           |
|  \\    /   O peration     | Version:  2212                                  |
|   \\  /    A nd           | Website:  www.openfoam.com                      |
|    \\/     M anipulation  |                                                 |
\*---------------------------------------------------------------------------*/
FoamFile
{
    version     2.0;
    format      ascii;
    arch        "LSB;label=32;scalar=64";
    class       volScalarField;
    location    "630";
    object      p_rgh;
}
// * * * * * * * * * * * * * * * * * * * * * * * * * * * * * * * * * * * * * //

dimensions      [1 -1 -2 0 0 0 0];

internalField   nonuniform List<scalar> 
204800
(
46.8624
46.8566
46.8465
46.8308
46.81
46.7837
46.7519
46.7148
46.6724
46.625
46.5728
46.516
46.4547
46.3892
46.3194
46.2455
46.1676
46.0859
46.0002
45.9108
45.8178
45.7211
45.621
45.5174
45.4104
45.3002
45.1868
45.0704
44.9509
44.8285
44.7033
44.5754
44.4448
44.3117
44.1762
44.0383
43.8981
43.7557
43.6113
43.4649
43.3165
43.1664
43.0146
42.8612
42.7063
42.5499
42.3922
42.2333
42.0732
41.9121
41.75
41.587
41.4232
41.2588
41.0937
40.9282
40.7622
40.5958
40.4292
40.2624
40.0954
39.9285
39.7616
39.5949
39.4284
39.2621
39.0963
38.9308
38.7659
38.6015
38.4378
38.2748
38.1126
37.9512
37.7907
37.6311
37.4726
37.3152
37.1588
37.0037
36.8498
36.6972
36.5459
36.3959
36.2474
36.1004
35.9549
35.8109
35.6685
35.5278
35.3887
35.2512
35.1156
34.9816
34.8495
34.7192
34.5907
34.4641
34.3393
34.2165
34.0956
33.9766
33.8596
33.7445
33.6315
33.5204
33.4114
33.3043
33.1993
33.0963
32.9953
32.8964
32.7996
32.7047
32.612
32.5212
32.4326
32.3459
32.2613
32.1787
32.0982
32.0197
31.9431
31.8686
31.7961
31.7256
31.657
31.5904
31.5258
31.463
31.4022
31.3433
31.2863
31.2312
31.178
31.1265
31.0769
31.0291
30.9831
30.9389
30.8964
30.8557
30.8166
30.7792
30.7435
30.7095
30.6771
30.6462
30.617
30.5893
30.5631
30.5385
30.5153
30.4936
30.4734
30.4545
30.4371
30.421
30.4063
30.3929
30.3808
30.37
30.3604
30.3521
30.3449
30.339
30.3342
30.3305
30.3279
30.3265
30.3261
30.3267
30.3283
30.331
30.3346
30.3391
30.3446
30.351
30.3582
30.3664
30.3753
30.3851
30.3956
30.4069
30.419
30.4318
30.4453
30.4595
30.4743
30.4898
30.5059
30.5226
30.5399
30.5578
30.5762
30.5951
30.6145
30.6344
30.6548
30.6757
30.6969
30.7186
30.7407
30.7632
30.786
30.8092
30.8326
30.8565
30.8806
30.905
30.9296
30.9545
30.9796
31.005
31.0306
31.0563
31.0822
31.1083
31.1345
31.1609
31.1874
31.214
31.2407
31.2674
31.2943
31.3212
31.3481
31.3751
31.4021
31.429
31.456
31.483
31.51
31.5369
31.5638
31.5906
31.6174
31.644
31.6706
31.6971
31.7235
31.7498
31.7759
31.802
31.8278
31.8536
31.8791
31.9045
31.9298
31.9548
31.9797
32.0043
32.0288
32.053
32.0771
32.1009
32.1244
32.1477
32.1708
32.1936
32.2162
32.2385
32.2605
32.2823
32.3037
32.3249
32.3458
32.3664
32.3867
32.4066
32.4263
32.4456
32.4646
32.4833
32.5017
32.5197
32.5374
32.5547
32.5717
32.5883
32.6046
32.6205
32.636
32.6512
32.666
32.6804
32.6945
32.7081
32.7214
32.7343
32.7468
32.7589
32.7707
32.782
32.7929
32.8034
32.8135
32.8233
32.8326
32.8415
32.8499
32.858
32.8657
32.8729
32.8797
32.8861
32.8921
32.8976
32.9028
32.9075
32.9118
32.9156
32.919
32.922
32.9246
32.9268
32.9285
32.9298
32.9306
32.9311
46.797
46.7901
46.7771
46.758
46.7333
46.7035
46.6687
46.6291
46.585
46.5364
46.4833
46.426
46.3644
46.2986
46.2287
46.1548
46.077
45.9953
45.9097
45.8204
45.7275
45.6309
45.5309
45.4275
45.3207
45.2106
45.0974
44.9812
44.8619
44.7397
44.6147
44.487
44.3567
44.2238
44.0884
43.9508
43.8108
43.6687
43.5245
43.3783
43.2303
43.0804
42.9289
42.7757
42.621
42.4649
42.3075
42.1489
41.9891
41.8282
41.6664
41.5037
41.3403
41.1761
41.0113
40.8461
40.6803
40.5143
40.3479
40.1814
40.0148
39.8482
39.6816
39.5152
39.349
39.183
39.0174
38.8523
38.6877
38.5236
38.3602
38.1975
38.0355
37.8744
37.7142
37.555
37.3968
37.2396
37.0836
36.9287
36.7751
36.6227
36.4717
36.3221
36.1739
36.0271
35.8818
35.7381
35.596
35.4555
35.3167
35.1796
35.0441
34.9105
34.7786
34.6485
34.5203
34.3939
34.2694
34.1468
34.0261
33.9074
33.7906
33.6757
33.5629
33.4521
33.3432
33.2364
33.1316
33.0288
32.928
32.8293
32.7326
32.638
32.5454
32.4549
32.3664
32.2799
32.1955
32.1131
32.0327
31.9543
31.878
31.8036
31.7312
31.6608
31.5924
31.526
31.4614
31.3989
31.3382
31.2794
31.2226
31.1676
31.1144
31.0631
31.0136
30.9659
30.92
30.8759
30.8335
30.7928
30.7539
30.7166
30.681
30.647
30.6147
30.5839
30.5547
30.5271
30.501
30.4764
30.4533
30.4317
30.4115
30.3927
30.3753
30.3593
30.3446
30.3313
30.3192
30.3084
30.2989
30.2906
30.2835
30.2775
30.2728
30.2691
30.2666
30.2651
30.2647
30.2654
30.267
30.2697
30.2733
30.2779
30.2833
30.2897
30.297
30.3051
30.314
30.3238
30.3343
30.3456
30.3577
30.3705
30.384
30.3981
30.413
30.4284
30.4445
30.4612
30.4785
30.4963
30.5147
30.5336
30.553
30.5729
30.5933
30.6141
30.6353
30.657
30.679
30.7015
30.7242
30.7474
30.7708
30.7946
30.8187
30.843
30.8677
30.8925
30.9176
30.9429
30.9685
30.9942
31.0201
31.0461
31.0723
31.0986
31.1251
31.1516
31.1783
31.205
31.2318
31.2586
31.2855
31.3124
31.3394
31.3663
31.3933
31.4202
31.4471
31.474
31.5008
31.5276
31.5543
31.581
31.6075
31.634
31.6603
31.6865
31.7127
31.7386
31.7645
31.7902
31.8157
31.841
31.8662
31.8912
31.9161
31.9407
31.9651
31.9893
32.0133
32.037
32.0606
32.0838
32.1069
32.1297
32.1522
32.1744
32.1964
32.2181
32.2396
32.2607
32.2816
32.3021
32.3224
32.3423
32.3619
32.3812
32.4002
32.4189
32.4372
32.4552
32.4728
32.4901
32.5071
32.5236
32.5399
32.5558
32.5713
32.5864
32.6012
32.6156
32.6296
32.6433
32.6565
32.6694
32.6819
32.694
32.7057
32.717
32.7279
32.7384
32.7485
32.7582
32.7675
32.7764
32.7848
32.7929
32.8005
32.8077
32.8145
32.8209
32.8269
32.8324
32.8376
32.8423
32.8465
32.8504
32.8538
32.8568
32.8594
32.8615
32.8632
32.8645
32.8654
32.8658
46.7806
46.774
46.761
46.742
46.7174
46.6877
46.6529
46.6134
46.5692
46.5205
46.4674
46.41
46.3483
46.2824
46.2125
46.1385
46.0605
45.9787
45.8931
45.8037
45.7107
45.6141
45.514
45.4105
45.3037
45.1936
45.0804
44.964
44.8447
44.7225
44.5975
44.4697
44.3393
44.2064
44.071
43.9333
43.7934
43.6512
43.507
43.3608
43.2127
43.0628
42.9112
42.7581
42.6034
42.4473
42.2898
42.1311
41.9713
41.8105
41.6486
41.486
41.3225
41.1583
40.9935
40.8283
40.6625
40.4965
40.3301
40.1636
39.997
39.8304
39.6638
39.4974
39.3311
39.1652
38.9996
38.8345
38.6699
38.5058
38.3424
38.1797
38.0178
37.8567
37.6965
37.5373
37.3791
37.2219
37.0659
36.9111
36.7575
36.6051
36.4542
36.3045
36.1563
36.0096
35.8644
35.7207
35.5786
35.4381
35.2993
35.1622
35.0268
34.8932
34.7614
34.6313
34.5031
34.3768
34.2523
34.1297
34.0091
33.8904
33.7736
33.6588
33.546
33.4352
33.3264
33.2196
33.1148
33.0121
32.9114
32.8127
32.7161
32.6215
32.529
32.4384
32.35
32.2636
32.1792
32.0968
32.0165
31.9381
31.8618
31.7875
31.7152
31.6448
31.5765
31.51
31.4456
31.383
31.3224
31.2637
31.2069
31.1519
31.0988
31.0475
30.9981
30.9504
30.9046
30.8605
30.8181
30.7775
30.7386
30.7014
30.6658
30.6319
30.5995
30.5688
30.5397
30.5121
30.4861
30.4615
30.4385
30.4169
30.3967
30.378
30.3606
30.3446
30.33
30.3167
30.3046
30.2939
30.2844
30.2761
30.269
30.2631
30.2584
30.2548
30.2523
30.2508
30.2505
30.2512
30.2528
30.2555
30.2592
30.2638
30.2693
30.2757
30.283
30.2911
30.3001
30.3099
30.3204
30.3318
30.3438
30.3566
30.3702
30.3843
30.3992
30.4147
30.4308
30.4475
30.4648
30.4827
30.5011
30.52
30.5394
30.5593
30.5797
30.6005
30.6218
30.6435
30.6656
30.688
30.7108
30.734
30.7574
30.7812
30.8053
30.8297
30.8543
30.8792
30.9043
30.9296
30.9552
30.9809
31.0068
31.0328
31.059
31.0854
31.1118
31.1384
31.1651
31.1918
31.2186
31.2454
31.2724
31.2993
31.3262
31.3532
31.3802
31.4071
31.434
31.4609
31.4878
31.5145
31.5413
31.5679
31.5944
31.6209
31.6473
31.6735
31.6996
31.7256
31.7514
31.7771
31.8027
31.828
31.8532
31.8782
31.9031
31.9277
31.9521
31.9763
32.0003
32.024
32.0476
32.0709
32.0939
32.1167
32.1392
32.1615
32.1835
32.2052
32.2266
32.2478
32.2686
32.2892
32.3094
32.3293
32.349
32.3683
32.3873
32.4059
32.4242
32.4422
32.4599
32.4772
32.4941
32.5107
32.5269
32.5428
32.5583
32.5735
32.5883
32.6027
32.6167
32.6303
32.6436
32.6565
32.669
32.6811
32.6928
32.7041
32.715
32.7255
32.7356
32.7453
32.7546
32.7634
32.7719
32.7799
32.7876
32.7948
32.8016
32.808
32.814
32.8195
32.8246
32.8293
32.8336
32.8375
32.8409
32.8439
32.8465
32.8486
32.8503
32.8516
32.8525
32.8529
46.7179
46.7108
46.6968
46.6765
46.6503
46.619
46.5827
46.5418
46.4965
46.4469
46.393
46.335
46.2728
46.2067
46.1364
46.0623
45.9842
45.9023
45.8166
45.7272
45.6341
45.5375
45.4375
45.334
45.2272
45.1171
45.0039
44.8877
44.7684
44.6463
44.5213
44.3937
44.2634
44.1305
43.9953
43.8577
43.7178
43.5758
43.4317
43.2856
43.1377
42.9879
42.8365
42.6834
42.5289
42.3729
42.2157
42.0571
41.8975
41.7368
41.5751
41.4126
41.2493
41.0853
40.9207
40.7556
40.5901
40.4242
40.258
40.0917
39.9253
39.7589
39.5925
39.4262
39.2602
39.0945
38.9291
38.7642
38.5997
38.4359
38.2727
38.1102
37.9485
37.7876
37.6276
37.4686
37.3106
37.1536
36.9978
36.8432
36.6898
36.5377
36.3869
36.2375
36.0895
35.943
35.7979
35.6545
35.5126
35.3723
35.2337
35.0968
34.9616
34.8282
34.6965
34.5667
34.4387
34.3125
34.1882
34.0659
33.9454
33.8269
33.7103
33.5957
33.4831
33.3725
33.2639
33.1572
33.0527
32.9501
32.8496
32.7511
32.6546
32.5602
32.4678
32.3775
32.2892
32.2029
32.1187
32.0364
31.9563
31.8781
31.8019
31.7278
31.6556
31.5854
31.5172
31.4509
31.3865
31.3241
31.2637
31.2051
31.1484
31.0935
31.0405
30.9894
30.9401
30.8926
30.8468
30.8028
30.7606
30.7201
30.6813
30.6441
30.6087
30.5748
30.5426
30.512
30.483
30.4555
30.4295
30.405
30.3821
30.3606
30.3405
30.3218
30.3045
30.2886
30.274
30.2608
30.2488
30.2382
30.2287
30.2205
30.2135
30.2076
30.203
30.1994
30.1969
30.1956
30.1953
30.196
30.1977
30.2004
30.2041
30.2088
30.2143
30.2207
30.2281
30.2362
30.2452
30.2551
30.2657
30.277
30.2891
30.302
30.3155
30.3297
30.3446
30.3601
30.3762
30.393
30.4103
30.4281
30.4465
30.4655
30.4849
30.5048
30.5252
30.5461
30.5673
30.589
30.6111
30.6335
30.6563
30.6795
30.703
30.7268
30.7508
30.7752
30.7998
30.8247
30.8498
30.8751
30.9007
30.9264
30.9523
30.9783
31.0045
31.0308
31.0573
31.0838
31.1105
31.1372
31.164
31.1908
31.2177
31.2446
31.2716
31.2985
31.3255
31.3524
31.3793
31.4062
31.433
31.4597
31.4864
31.5131
31.5396
31.566
31.5924
31.6186
31.6447
31.6707
31.6965
31.7221
31.7477
31.773
31.7982
31.8232
31.848
31.8726
31.897
31.9212
31.9451
31.9689
31.9924
32.0156
32.0387
32.0614
32.0839
32.1062
32.1281
32.1498
32.1713
32.1924
32.2132
32.2337
32.254
32.2739
32.2935
32.3128
32.3318
32.3504
32.3687
32.3867
32.4043
32.4216
32.4385
32.4551
32.4713
32.4872
32.5027
32.5178
32.5326
32.547
32.561
32.5746
32.5879
32.6007
32.6132
32.6253
32.637
32.6483
32.6591
32.6696
32.6797
32.6894
32.6987
32.7076
32.716
32.7241
32.7317
32.7389
32.7457
32.7521
32.758
32.7636
32.7687
32.7734
32.7777
32.7815
32.7849
32.7879
32.7905
32.7926
32.7943
32.7956
32.7965
32.7969
46.6908
46.684
46.6701
46.6501
46.6243
46.5931
46.557
46.5162
46.4709
46.4212
46.3673
46.3091
46.2468
46.1805
46.1101
46.0358
45.9575
45.8755
45.7896
45.7001
45.6069
45.5102
45.4099
45.3063
45.1994
45.0893
44.9759
44.8596
44.7402
44.618
44.4929
44.3652
44.2348
44.1019
43.9666
43.8289
43.6889
43.5468
43.4026
43.2565
43.1085
42.9587
42.8072
42.6541
42.4995
42.3434
42.1861
42.0275
41.8678
41.7071
41.5454
41.3828
41.2195
41.0554
40.8908
40.7257
40.5601
40.3942
40.228
40.0617
39.8952
39.7288
39.5624
39.3961
39.2301
39.0643
38.8989
38.734
38.5696
38.4057
38.2425
38.08
37.9183
37.7574
37.5974
37.4384
37.2804
37.1235
36.9677
36.8131
36.6597
36.5076
36.3569
36.2075
36.0595
35.913
35.768
35.6246
35.4827
35.3425
35.2039
35.0671
34.9319
34.7985
34.6669
34.5371
34.4092
34.2831
34.1589
34.0365
33.9161
33.7977
33.6812
33.5666
33.4541
33.3435
33.235
33.1284
33.0239
32.9214
32.8209
32.7225
32.6261
32.5317
32.4394
32.3492
32.2609
32.1747
32.0906
32.0085
31.9283
31.8503
31.7742
31.7001
31.628
31.5579
31.4897
31.4235
31.3592
31.2969
31.2365
31.178
31.1214
31.0666
31.0137
30.9627
30.9134
30.866
30.8203
30.7764
30.7342
30.6938
30.6551
30.618
30.5826
30.5489
30.5167
30.4862
30.4572
30.4298
30.4039
30.3795
30.3566
30.3352
30.3152
30.2966
30.2794
30.2635
30.2491
30.2359
30.224
30.2134
30.204
30.1959
30.1889
30.1831
30.1785
30.175
30.1726
30.1713
30.1711
30.1719
30.1736
30.1764
30.1802
30.1849
30.1905
30.197
30.2044
30.2126
30.2216
30.2315
30.2422
30.2536
30.2657
30.2786
30.2922
30.3065
30.3214
30.337
30.3531
30.3699
30.3873
30.4052
30.4236
30.4426
30.4621
30.4821
30.5025
30.5234
30.5447
30.5664
30.5885
30.611
30.6338
30.657
30.6806
30.7044
30.7285
30.7529
30.7776
30.8025
30.8276
30.853
30.8785
30.9043
30.9302
30.9562
30.9825
31.0088
31.0353
31.0619
31.0885
31.1153
31.1421
31.169
31.1959
31.2228
31.2498
31.2767
31.3037
31.3307
31.3576
31.3845
31.4113
31.4381
31.4648
31.4915
31.518
31.5445
31.5708
31.5971
31.6232
31.6491
31.675
31.7007
31.7262
31.7516
31.7767
31.8017
31.8266
31.8512
31.8756
31.8998
31.9238
31.9475
31.971
31.9943
32.0173
32.0401
32.0626
32.0849
32.1069
32.1286
32.15
32.1711
32.192
32.2125
32.2327
32.2527
32.2723
32.2916
32.3105
32.3292
32.3475
32.3655
32.3831
32.4004
32.4173
32.4339
32.4501
32.466
32.4815
32.4966
32.5114
32.5258
32.5398
32.5535
32.5667
32.5796
32.592
32.6041
32.6158
32.6271
32.638
32.6485
32.6586
32.6683
32.6776
32.6864
32.6949
32.7029
32.7106
32.7178
32.7246
32.731
32.7369
32.7425
32.7476
32.7523
32.7566
32.7604
32.7638
32.7668
32.7694
32.7715
32.7732
32.7745
32.7754
32.7758
46.6317
46.6247
46.6105
46.5901
46.5636
46.5319
46.4951
46.4536
46.4076
46.3573
46.3028
46.2441
46.1814
46.1147
46.044
45.9694
45.8909
45.8086
45.7226
45.6329
45.5396
45.4427
45.3424
45.2387
45.1317
45.0215
44.9081
44.7917
44.6723
44.55
44.425
44.2972
44.1668
44.0339
43.8985
43.7609
43.6209
43.4788
43.3347
43.1886
43.0406
42.8908
42.7393
42.5863
42.4317
42.2757
42.1184
41.9599
41.8003
41.6396
41.4779
41.3154
41.1522
40.9882
40.8237
40.6586
40.4931
40.3273
40.1612
39.9949
39.8286
39.6622
39.4959
39.3298
39.1638
38.9982
38.8329
38.6681
38.5038
38.3401
38.177
38.0146
37.853
37.6923
37.5324
37.3735
37.2157
37.0589
36.9032
36.7488
36.5955
36.4436
36.2929
36.1437
35.9959
35.8495
35.7047
35.5614
35.4197
35.2796
35.1412
35.0045
34.8695
34.7363
34.6048
34.4752
34.3474
34.2215
34.0974
33.9752
33.855
33.7367
33.6203
33.506
33.3936
33.2832
33.1748
33.0684
32.964
32.8617
32.7614
32.6631
32.5669
32.4727
32.3805
32.2904
32.2023
32.1163
32.0323
31.9503
31.8704
31.7924
31.7165
31.6425
31.5706
31.5006
31.4326
31.3666
31.3024
31.2403
31.18
31.1216
31.0651
31.0105
30.9578
30.9068
30.8577
30.8104
30.7649
30.7211
30.6791
30.6388
30.6002
30.5632
30.528
30.4943
30.4623
30.4319
30.403
30.3757
30.35
30.3257
30.3029
30.2816
30.2617
30.2432
30.2261
30.2103
30.1959
30.1829
30.1711
30.1606
30.1513
30.1432
30.1364
30.1307
30.1261
30.1227
30.1204
30.1192
30.119
30.1199
30.1218
30.1246
30.1284
30.1332
30.1389
30.1455
30.1529
30.1612
30.1703
30.1803
30.191
30.2024
30.2147
30.2276
30.2412
30.2556
30.2705
30.2861
30.3024
30.3192
30.3366
30.3546
30.3731
30.3921
30.4116
30.4316
30.4521
30.473
30.4943
30.5161
30.5382
30.5608
30.5836
30.6069
30.6304
30.6543
30.6784
30.7028
30.7275
30.7524
30.7776
30.803
30.8285
30.8543
30.8802
30.9063
30.9326
30.959
30.9854
31.012
31.0387
31.0655
31.0923
31.1192
31.1461
31.1731
31.2
31.227
31.254
31.2809
31.3079
31.3348
31.3616
31.3884
31.4151
31.4418
31.4683
31.4948
31.5211
31.5474
31.5735
31.5995
31.6253
31.651
31.6765
31.7019
31.7271
31.7521
31.7769
31.8015
31.8259
31.8501
31.8741
31.8978
31.9213
31.9446
31.9676
31.9904
32.0129
32.0352
32.0571
32.0788
32.1003
32.1214
32.1422
32.1628
32.183
32.2029
32.2225
32.2418
32.2608
32.2794
32.2977
32.3157
32.3333
32.3506
32.3675
32.3841
32.4003
32.4162
32.4317
32.4468
32.4616
32.476
32.49
32.5036
32.5169
32.5297
32.5422
32.5543
32.566
32.5773
32.5881
32.5986
32.6087
32.6184
32.6277
32.6365
32.645
32.653
32.6607
32.6679
32.6747
32.6811
32.687
32.6926
32.6977
32.7024
32.7066
32.7105
32.7139
32.7169
32.7195
32.7216
32.7233
32.7246
32.7255
32.7259
46.5978
46.591
46.5771
46.557
46.5309
46.4994
46.4627
46.4214
46.3754
46.3251
46.2705
46.2117
46.1488
46.0819
46.0109
45.9361
45.8574
45.7749
45.6887
45.5987
45.5052
45.4082
45.3077
45.2038
45.0966
44.9862
44.8727
44.7561
44.6365
44.5141
44.3889
44.2609
44.1304
43.9973
43.8619
43.724
43.584
43.4417
43.2975
43.1512
43.0031
42.8532
42.7016
42.5484
42.3938
42.2377
42.0803
41.9217
41.7619
41.6011
41.4394
41.2768
41.1135
40.9494
40.7848
40.6197
40.4541
40.2882
40.1221
39.9557
39.7893
39.6229
39.4566
39.2904
39.1244
38.9587
38.7934
38.6285
38.4642
38.3004
38.1373
37.9749
37.8133
37.6526
37.4927
37.3338
37.176
37.0192
36.8635
36.7091
36.5558
36.4039
36.2533
36.1041
35.9563
35.8099
35.6651
35.5219
35.3802
35.2402
35.1018
34.9651
34.8302
34.697
34.5656
34.436
34.3083
34.1824
34.0584
33.9363
33.8161
33.6979
33.5816
33.4673
33.355
33.2447
33.1364
33.0301
32.9258
32.8235
32.7233
32.6251
32.529
32.4349
32.3428
32.2528
32.1648
32.0789
31.995
31.9131
31.8333
31.7554
31.6796
31.6058
31.5339
31.464
31.3961
31.3302
31.2662
31.2041
31.144
31.0857
31.0293
30.9748
30.9222
30.8714
30.8224
30.7752
30.7297
30.6861
30.6442
30.604
30.5655
30.5287
30.4935
30.46
30.4281
30.3978
30.369
30.3418
30.3162
30.292
30.2693
30.2481
30.2283
30.2099
30.1929
30.1773
30.163
30.15
30.1383
30.1279
30.1187
30.1108
30.104
30.0985
30.094
30.0907
30.0885
30.0874
30.0873
30.0883
30.0902
30.0932
30.0971
30.1019
30.1077
30.1144
30.1219
30.1303
30.1395
30.1495
30.1603
30.1719
30.1842
30.1972
30.2109
30.2253
30.2403
30.256
30.2723
30.2892
30.3067
30.3247
30.3433
30.3624
30.382
30.4021
30.4226
30.4436
30.465
30.4868
30.509
30.5316
30.5545
30.5778
30.6014
30.6253
30.6495
30.674
30.6987
30.7237
30.7489
30.7744
30.8
30.8258
30.8518
30.8779
30.9042
30.9306
30.9572
30.9838
31.0105
31.0373
31.0642
31.0911
31.1181
31.1451
31.1721
31.1991
31.2261
31.2531
31.2801
31.307
31.3339
31.3607
31.3875
31.4141
31.4407
31.4672
31.4936
31.5199
31.546
31.572
31.5979
31.6236
31.6491
31.6745
31.6997
31.7248
31.7496
31.7742
31.7987
31.8229
31.8469
31.8706
31.8942
31.9175
31.9405
31.9633
31.9858
32.0081
32.0301
32.0518
32.0732
32.0944
32.1152
32.1358
32.156
32.176
32.1956
32.2149
32.2339
32.2525
32.2708
32.2888
32.3064
32.3237
32.3407
32.3573
32.3735
32.3894
32.4049
32.42
32.4348
32.4492
32.4632
32.4768
32.4901
32.503
32.5154
32.5275
32.5392
32.5505
32.5614
32.5719
32.582
32.5917
32.601
32.6098
32.6183
32.6263
32.634
32.6412
32.648
32.6544
32.6603
32.6659
32.671
32.6757
32.68
32.6838
32.6872
32.6902
32.6928
32.6949
32.6967
32.6979
32.6988
32.6992
46.5421
46.5352
46.5213
46.5011
46.4749
46.4432
46.4062
46.3645
46.3182
46.2675
46.2125
46.1533
46.09
46.0227
45.9514
45.8763
45.7973
45.7145
45.628
45.5379
45.4441
45.3469
45.2462
45.1421
45.0348
44.9242
44.8105
44.6938
44.5741
44.4515
44.3262
44.1981
44.0675
43.9343
43.7987
43.6608
43.5207
43.3784
43.234
43.0877
42.9395
42.7895
42.6379
42.4846
42.3299
42.1738
42.0163
41.8577
41.6979
41.5371
41.3753
41.2127
41.0493
40.8853
40.7207
40.5555
40.3899
40.2241
40.0579
39.8916
39.7252
39.5588
39.3925
39.2263
39.0603
38.8947
38.7294
38.5646
38.4003
38.2366
38.0735
37.9112
37.7497
37.589
37.4292
37.2703
37.1126
36.9558
36.8003
36.6459
36.4927
36.3409
36.1904
36.0412
35.8935
35.7473
35.6026
35.4595
35.3179
35.178
35.0397
34.9032
34.7684
34.6353
34.504
34.3746
34.2469
34.1212
33.9973
33.8754
33.7553
33.6372
33.5211
33.4069
33.2948
33.1846
33.0764
32.9702
32.8661
32.764
32.6639
32.5659
32.4699
32.3759
32.284
32.1942
32.1064
32.0206
31.9368
31.8551
31.7754
31.6977
31.622
31.5484
31.4767
31.407
31.3392
31.2734
31.2096
31.1477
31.0877
31.0296
30.9734
30.919
30.8665
30.8158
30.767
30.7199
30.6747
30.6312
30.5894
30.5494
30.511
30.4743
30.4393
30.406
30.3742
30.344
30.3154
30.2884
30.2629
30.2388
30.2163
30.1952
30.1755
30.1573
30.1404
30.1249
30.1108
30.0979
30.0864
30.0761
30.067
30.0592
30.0525
30.0471
30.0428
30.0396
30.0375
30.0365
30.0365
30.0376
30.0396
30.0427
30.0467
30.0517
30.0575
30.0643
30.0719
30.0804
30.0897
30.0998
30.1107
30.1224
30.1348
30.1479
30.1617
30.1761
30.1913
30.207
30.2234
30.2404
30.258
30.2761
30.2947
30.3139
30.3335
30.3537
30.3743
30.3953
30.4168
30.4387
30.461
30.4836
30.5066
30.5299
30.5536
30.5776
30.6018
30.6264
30.6511
30.6762
30.7014
30.7269
30.7526
30.7785
30.8045
30.8307
30.857
30.8835
30.91
30.9367
30.9635
30.9903
31.0172
31.0442
31.0712
31.0982
31.1252
31.1523
31.1793
31.2063
31.2333
31.2603
31.2872
31.314
31.3408
31.3675
31.3941
31.4207
31.4471
31.4733
31.4995
31.5255
31.5514
31.5771
31.6027
31.6281
31.6533
31.6784
31.7032
31.7279
31.7523
31.7766
31.8006
31.8244
31.8479
31.8712
31.8943
31.9171
31.9396
31.9619
31.9839
32.0056
32.0271
32.0482
32.0691
32.0896
32.1099
32.1298
32.1494
32.1688
32.1877
32.2064
32.2247
32.2427
32.2603
32.2776
32.2946
32.3112
32.3274
32.3433
32.3588
32.374
32.3887
32.4031
32.4171
32.4308
32.444
32.4569
32.4694
32.4815
32.4932
32.5045
32.5154
32.5259
32.536
32.5457
32.5549
32.5638
32.5723
32.5803
32.588
32.5952
32.602
32.6084
32.6143
32.6199
32.625
32.6297
32.6339
32.6378
32.6412
32.6442
32.6468
32.6489
32.6506
32.6519
32.6528
32.6532
46.504
46.4973
46.4836
46.4637
46.4377
46.4063
46.3695
46.3279
46.2816
46.2309
46.1757
46.1164
46.0529
45.9854
45.9139
45.8385
45.7592
45.6762
45.5894
45.499
45.405
45.3075
45.2065
45.1022
44.9946
44.8838
44.7699
44.6529
44.533
44.4102
44.2847
44.1564
44.0255
43.8922
43.7564
43.6183
43.4779
43.3354
43.1908
43.0443
42.896
42.7458
42.594
42.4406
42.2857
42.1294
41.9718
41.813
41.6531
41.4921
41.3302
41.1674
41.0039
40.8397
40.675
40.5097
40.344
40.178
40.0118
39.8454
39.6789
39.5124
39.3459
39.1797
39.0136
38.8479
38.6826
38.5177
38.3533
38.1896
38.0265
37.8641
37.7025
37.5417
37.3819
37.2231
37.0652
36.9085
36.7529
36.5985
36.4454
36.2935
36.143
35.9939
35.8462
35.7
35.5553
35.4122
35.2706
35.1308
34.9925
34.856
34.7212
34.5882
34.457
34.3276
34.2
34.0743
33.9505
33.8287
33.7087
33.5907
33.4746
33.3605
33.2484
33.1383
33.0303
32.9242
32.8202
32.7181
32.6182
32.5203
32.4244
32.3305
32.2387
32.149
32.0613
31.9756
31.892
31.8104
31.7308
31.6533
31.5777
31.5042
31.4326
31.363
31.2954
31.2298
31.1661
31.1043
31.0444
30.9865
30.9304
30.8762
30.8238
30.7733
30.7246
30.6777
30.6326
30.5892
30.5476
30.5077
30.4695
30.4329
30.3981
30.3648
30.3332
30.3032
30.2747
30.2478
30.2224
30.1986
30.1762
30.1552
30.1357
30.1176
30.1009
30.0855
30.0715
30.0588
30.0474
30.0372
30.0283
30.0206
30.0141
30.0087
30.0046
30.0015
29.9995
29.9986
29.9988
30
30.0022
30.0054
30.0095
30.0146
30.0206
30.0275
30.0352
30.0438
30.0532
30.0635
30.0745
30.0862
30.0987
30.112
30.1259
30.1404
30.1557
30.1716
30.188
30.2051
30.2228
30.241
30.2597
30.279
30.2987
30.319
30.3397
30.3608
30.3824
30.4043
30.4267
30.4494
30.4725
30.4959
30.5197
30.5437
30.5681
30.5927
30.6175
30.6426
30.668
30.6935
30.7193
30.7452
30.7713
30.7976
30.824
30.8505
30.8771
30.9038
30.9307
30.9576
30.9845
31.0116
31.0386
31.0657
31.0928
31.1199
31.147
31.1741
31.2011
31.2281
31.2551
31.282
31.3088
31.3355
31.3622
31.3887
31.4152
31.4415
31.4677
31.4938
31.5197
31.5455
31.5711
31.5965
31.6218
31.6469
31.6718
31.6964
31.7209
31.7452
31.7692
31.793
31.8166
31.8399
31.863
31.8859
31.9084
31.9307
31.9528
31.9745
31.996
32.0172
32.038
32.0586
32.0789
32.0989
32.1185
32.1378
32.1568
32.1755
32.1938
32.2119
32.2295
32.2468
32.2638
32.2804
32.2967
32.3125
32.3281
32.3432
32.358
32.3724
32.3865
32.4001
32.4134
32.4263
32.4388
32.4509
32.4626
32.4739
32.4848
32.4953
32.5054
32.5151
32.5244
32.5333
32.5417
32.5498
32.5574
32.5646
32.5714
32.5778
32.5838
32.5893
32.5945
32.5992
32.6034
32.6073
32.6107
32.6137
32.6163
32.6184
32.6201
32.6214
32.6223
32.6227
46.4512
46.4445
46.4309
46.411
46.3851
46.3536
46.3167
46.275
46.2284
46.1774
46.122
46.0623
45.9985
45.9306
45.8588
45.783
45.7034
45.6201
45.533
45.4423
45.348
45.2502
45.149
45.0444
44.9366
44.8256
44.7114
44.5942
44.474
44.351
44.2253
44.0968
43.9657
43.8322
43.6962
43.5579
43.4173
43.2747
43.1299
42.9833
42.8347
42.6844
42.5325
42.3789
42.2239
42.0674
41.9097
41.7508
41.5907
41.4296
41.2676
41.1048
40.9412
40.7769
40.612
40.4467
40.2809
40.1148
39.9485
39.782
39.6154
39.4489
39.2824
39.1161
38.95
38.7843
38.6189
38.454
38.2896
38.1258
37.9627
37.8003
37.6387
37.478
37.3182
37.1593
37.0015
36.8448
36.6892
36.5349
36.3818
36.2299
36.0795
35.9304
35.7828
35.6366
35.492
35.3489
35.2075
35.0677
34.9295
34.7931
34.6584
34.5255
34.3944
34.2651
34.1376
34.012
33.8883
33.7665
33.6467
33.5288
33.4129
33.2989
33.1869
33.077
32.969
32.8631
32.7592
32.6573
32.5575
32.4597
32.364
32.2703
32.1787
32.0891
32.0015
31.916
31.8326
31.7511
31.6717
31.5943
31.5189
31.4456
31.3742
31.3048
31.2373
31.1718
31.1083
31.0467
30.987
30.9292
30.8733
30.8193
30.7671
30.7167
30.6682
30.6215
30.5765
30.5333
30.4919
30.4521
30.4141
30.3777
30.3431
30.31
30.2785
30.2487
30.2204
30.1937
30.1685
30.1447
30.1225
30.1017
30.0824
30.0644
30.0479
30.0327
30.0188
30.0062
29.995
29.985
29.9762
29.9687
29.9623
29.9571
29.9531
29.9502
29.9484
29.9476
29.9479
29.9493
29.9516
29.9549
29.9592
29.9644
29.9705
29.9776
29.9854
29.9942
30.0037
30.0141
30.0252
30.0371
30.0497
30.063
30.0771
30.0918
30.1071
30.1231
30.1397
30.1569
30.1746
30.193
30.2118
30.2312
30.251
30.2714
30.2921
30.3134
30.335
30.3571
30.3795
30.4024
30.4255
30.449
30.4729
30.497
30.5214
30.5461
30.5711
30.5962
30.6217
30.6473
30.6731
30.6991
30.7253
30.7516
30.778
30.8046
30.8313
30.8581
30.885
30.912
30.939
30.9661
30.9932
31.0203
31.0475
31.0746
31.1018
31.1289
31.156
31.1831
31.2101
31.237
31.2639
31.2907
31.3174
31.344
31.3705
31.3968
31.4231
31.4492
31.4751
31.5009
31.5266
31.5521
31.5774
31.6025
31.6274
31.6521
31.6766
31.7009
31.725
31.7488
31.7724
31.7958
31.8189
31.8417
31.8643
31.8866
31.9087
31.9305
31.952
31.9732
31.9941
32.0147
32.035
32.0549
32.0746
32.0939
32.113
32.1317
32.15
32.168
32.1857
32.203
32.22
32.2366
32.2529
32.2688
32.2843
32.2995
32.3143
32.3287
32.3428
32.3564
32.3697
32.3826
32.3951
32.4072
32.4189
32.4303
32.4412
32.4517
32.4618
32.4715
32.4808
32.4897
32.4981
32.5062
32.5139
32.5211
32.5279
32.5343
32.5403
32.5458
32.5509
32.5556
32.5599
32.5638
32.5672
32.5702
32.5728
32.5749
32.5766
32.5779
32.5788
32.5792
46.4106
46.404
46.3906
46.371
46.3452
46.3139
46.2772
46.2355
46.1889
46.1378
46.0823
46.0224
45.9584
45.8903
45.8182
45.7422
45.6623
45.5786
45.4912
45.4002
45.3056
45.2075
45.106
45.0011
44.8929
44.7816
44.6671
44.5496
44.4292
44.3059
44.1798
44.0511
43.9197
43.7859
43.6496
43.5111
43.3703
43.2273
43.0823
42.9354
42.7866
42.6361
42.4839
42.3301
42.1748
42.0182
41.8602
41.7011
41.5408
41.3795
41.2173
41.0542
40.8904
40.726
40.5609
40.3954
40.2295
40.0632
39.8967
39.7301
39.5634
39.3967
39.2301
39.0636
38.8974
38.7316
38.5661
38.4011
38.2366
38.0727
37.9095
37.747
37.5853
37.4245
37.2646
37.1057
36.9479
36.7911
36.6355
36.4811
36.328
36.1761
36.0256
35.8766
35.7289
35.5828
35.4382
35.2951
35.1537
35.0139
34.8758
34.7394
34.6047
34.4718
34.3407
34.2115
34.0841
33.9586
33.8349
33.7132
33.5935
33.4756
33.3598
33.2459
33.134
33.0242
32.9163
32.8105
32.7067
32.605
32.5053
32.4076
32.312
32.2184
32.1269
32.0374
31.95
31.8647
31.7813
31.7
31.6208
31.5435
31.4683
31.3951
31.3238
31.2546
31.1873
31.122
31.0586
30.9971
30.9376
30.88
30.8242
30.7704
30.7184
30.6682
30.6198
30.5733
30.5285
30.4855
30.4442
30.4046
30.3668
30.3306
30.2961
30.2632
30.2319
30.2022
30.1741
30.1476
30.1225
30.099
30.0769
30.0563
30.0371
30.0194
30.003
29.9879
29.9743
29.9619
29.9508
29.9409
29.9324
29.925
29.9188
29.9138
29.9099
29.9071
29.9055
29.9049
29.9054
29.9069
29.9094
29.9128
29.9173
29.9226
29.9289
29.9361
29.9441
29.953
29.9627
29.9732
29.9844
29.9965
30.0092
30.0227
30.0369
30.0517
30.0672
30.0833
30.1
30.1174
30.1353
30.1537
30.1727
30.1921
30.2121
30.2326
30.2535
30.2748
30.2966
30.3188
30.3413
30.3643
30.3876
30.4112
30.4351
30.4593
30.4839
30.5086
30.5337
30.559
30.5845
30.6102
30.6361
30.6622
30.6885
30.7149
30.7414
30.7681
30.7949
30.8218
30.8487
30.8758
30.9029
30.93
30.9572
30.9844
31.0117
31.0389
31.0661
31.0933
31.1205
31.1476
31.1746
31.2016
31.2286
31.2554
31.2822
31.3089
31.3354
31.3618
31.3881
31.4143
31.4403
31.4662
31.4918
31.5174
31.5427
31.5679
31.5928
31.6176
31.6422
31.6665
31.6906
31.7145
31.7381
31.7615
31.7847
31.8076
31.8302
31.8526
31.8746
31.8965
31.918
31.9392
31.9601
31.9808
32.0011
32.0211
32.0408
32.0602
32.0792
32.0979
32.1163
32.1344
32.1521
32.1694
32.1864
32.2031
32.2194
32.2353
32.2508
32.266
32.2808
32.2953
32.3093
32.323
32.3363
32.3492
32.3617
32.3739
32.3856
32.3969
32.4079
32.4184
32.4285
32.4382
32.4475
32.4564
32.4649
32.473
32.4806
32.4879
32.4947
32.5011
32.5071
32.5126
32.5177
32.5224
32.5267
32.5306
32.534
32.537
32.5396
32.5417
32.5435
32.5448
32.5456
32.546
46.3602
46.3536
46.3403
46.3207
46.295
46.2637
46.227
46.1852
46.1385
46.0872
46.0313
45.9712
45.9068
45.8384
45.7659
45.6896
45.6093
45.5253
45.4376
45.3462
45.2513
45.1528
45.051
44.9458
44.8373
44.7256
44.6108
44.493
44.3723
44.2487
44.1223
43.9933
43.8617
43.7275
43.591
43.4522
43.3111
43.1679
43.0227
42.8755
42.7265
42.5757
42.4232
42.2692
42.1137
41.9569
41.7987
41.6393
41.4789
41.3174
41.155
40.9917
40.8277
40.6631
40.4979
40.3322
40.1661
39.9997
39.8331
39.6663
39.4995
39.3326
39.1659
38.9994
38.8331
38.6671
38.5015
38.3364
38.1718
38.0079
37.8446
37.682
37.5203
37.3595
37.1995
37.0406
36.8827
36.7259
36.5703
36.4159
36.2627
36.1109
35.9604
35.8113
35.6637
35.5176
35.373
35.23
35.0886
34.9488
34.8108
34.6744
34.5398
34.407
34.276
34.1468
34.0195
33.8941
33.7706
33.649
33.5293
33.4116
33.2958
33.1821
33.0703
32.9606
32.8529
32.7472
32.6435
32.5419
32.4423
32.3448
32.2494
32.1559
32.0646
31.9753
31.888
31.8028
31.7197
31.6385
31.5594
31.4824
31.4073
31.3343
31.2632
31.1941
31.127
31.0619
30.9987
30.9375
30.8781
30.8207
30.7651
30.7115
30.6596
30.6097
30.5615
30.5151
30.4705
30.4277
30.3866
30.3473
30.3096
30.2736
30.2393
30.2066
30.1756
30.1461
30.1182
30.0918
30.067
30.0436
30.0218
30.0013
29.9824
29.9648
29.9486
29.9337
29.9202
29.908
29.8971
29.8875
29.8791
29.8719
29.8659
29.8611
29.8574
29.8548
29.8533
29.8529