/*--------------------------------*- C++ -*----------------------------------*\
| =========                 |                                                 |
| \\      /  F ield         | OpenFOAM: The Open Source CFD Toolbox           |
|  \\    /   O peration     | Version:  2212                                  |
|   \\  /    A nd           | Website:  www.openfoam.com                      |
|    \\/     M anipulation  |                                                 |
\*---------------------------------------------------------------------------*/
FoamFile
{
    version     2.0;
    format      ascii;
    arch        "LSB;label=32;scalar=64";
    class       volScalarField;
    location    "630";
    object      p_rgh_0;
}
// * * * * * * * * * * * * * * * * * * * * * * * * * * * * * * * * * * * * * //

dimensions      [1 -1 -2 0 0 0 0];

internalField   nonuniform List<scalar> 
204800
(
46.8698
46.864
46.8538
46.8382
46.8174
46.791
46.7592
46.722
46.6796
46.6322
46.58
46.5231
46.4618
46.3962
46.3264
46.2525
46.1746
46.0927
46.007
45.9176
45.8245
45.7278
45.6275
45.5239
45.4169
45.3066
45.1932
45.0766
44.9571
44.8347
44.7094
44.5814
44.4508
44.3176
44.182
44.044
43.9037
43.7613
43.6168
43.4703
43.3219
43.1717
43.0198
42.8663
42.7113
42.5548
42.3971
42.238
42.0779
41.9167
41.7545
41.5914
41.4276
41.2631
41.0979
40.9323
40.7662
40.5998
40.433
40.2662
40.0992
39.9321
39.7652
39.5984
39.4318
39.2655
39.0995
38.934
38.769
38.6045
38.4407
38.2776
38.1153
37.9539
37.7933
37.6337
37.4751
37.3175
37.1611
37.0059
36.8519
36.6992
36.5478
36.3978
36.2492
36.1021
35.9565
35.8125
35.67
35.5292
35.39
35.2525
35.1168
34.9828
34.8506
34.7202
34.5916
34.465
34.3401
34.2172
34.0962
33.9772
33.8601
33.745
33.6318
33.5207
33.4116
33.3045
33.1994
33.0963
32.9953
32.8963
32.7994
32.7045
32.6116
32.5208
32.4321
32.3453
32.2606
32.178
32.0974
32.0188
31.9422
31.8676
31.795
31.7244
31.6557
31.589
31.5243
31.4615
31.4006
31.3417
31.2846
31.2294
31.176
31.1245
31.0749
31.027
30.9809
30.9366
30.894
30.8531
30.814
30.7765
30.7408
30.7066
30.6741
30.6432
30.6138
30.5861
30.5598
30.5351
30.5118
30.49
30.4697
30.4507
30.4332
30.417
30.4022
30.3887
30.3765
30.3656
30.3559
30.3475
30.3402
30.3341
30.3292
30.3255
30.3228
30.3212
30.3207
30.3212
30.3228
30.3253
30.3288
30.3332
30.3386
30.3449
30.352
30.36
30.3689
30.3785
30.3889
30.4002
30.4121
30.4248
30.4382
30.4522
30.467
30.4823
30.4983
30.5149
30.5321
30.5498
30.5681
30.5869
30.6063
30.6261
30.6463
30.6671
30.6882
30.7098
30.7317
30.7541
30.7768
30.7998
30.8232
30.8469
30.8709
30.8952
30.9197
30.9445
30.9695
30.9948
31.0202
31.0458
31.0716
31.0976
31.1237
31.15
31.1763
31.2028
31.2294
31.256
31.2828
31.3096
31.3364
31.3632
31.3901
31.417
31.4439
31.4708
31.4976
31.5244
31.5512
31.5779
31.6046
31.6311
31.6576
31.684
31.7103
31.7365
31.7625
31.7884
31.8142
31.8399
31.8653
31.8906
31.9158
31.9407
31.9655
31.9901
32.0144
32.0386
32.0625
32.0862
32.1097
32.1329
32.1559
32.1787
32.2011
32.2233
32.2453
32.267
32.2884
32.3095
32.3303
32.3508
32.371
32.3909
32.4105
32.4297
32.4487
32.4673
32.4856
32.5035
32.5211
32.5384
32.5553
32.5719
32.5881
32.6039
32.6194
32.6345
32.6493
32.6637
32.6777
32.6913
32.7045
32.7174
32.7298
32.7419
32.7536
32.7649
32.7758
32.7862
32.7963
32.806
32.8153
32.8241
32.8326
32.8406
32.8482
32.8554
32.8622
32.8686
32.8746
32.8801
32.8852
32.8899
32.8942
32.898
32.9014
32.9044
32.907
32.9091
32.9108
32.9121
32.913
32.9134
46.8043
46.7975
46.7844
46.7653
46.7406
46.7108
46.6759
46.6364
46.5922
46.5435
46.4905
46.4331
46.3714
46.3056
46.2357
46.1618
46.0839
46.0021
45.9165
45.8272
45.7342
45.6376
45.5375
45.434
45.3271
45.217
45.1038
44.9874
44.8681
44.7458
44.6208
44.493
44.3626
44.2296
44.0942
43.9565
43.8164
43.6742
43.53
43.3837
43.2356
43.0857
42.934
42.7808
42.626
42.4699
42.3124
42.1536
41.9937
41.8328
41.6709
41.5082
41.3446
41.1804
41.0155
40.8502
40.6844
40.5182
40.3518
40.1852
40.0185
39.8518
39.6852
39.5186
39.3523
39.1863
39.0207
38.8554
38.6907
38.5266
38.3631
38.2003
38.0383
37.8771
37.7168
37.5575
37.3992
37.242
37.0858
36.9309
36.7772
36.6248
36.4737
36.324
36.1757
36.0288
35.8835
35.7397
35.5975
35.457
35.3181
35.1808
35.0454
34.9116
34.7797
34.6495
34.5212
34.3948
34.2702
34.1475
34.0268
33.9079
33.7911
33.6762
33.5633
33.4524
33.3434
33.2365
33.1316
33.0288
32.928
32.8292
32.7324
32.6377
32.5451
32.4544
32.3659
32.2793
32.1948
32.1123
32.0319
31.9534
31.877
31.8026
31.7301
31.6596
31.5912
31.5246
31.46
31.3974
31.3366
31.2778
31.2208
31.1657
31.1125
31.0611
31.0115
30.9638
30.9178
30.8735
30.8311
30.7903
30.7513
30.7139
30.6782
30.6441
30.6117
30.5809
30.5516
30.5239
30.4977
30.473
30.4498
30.4281
30.4078
30.3889
30.3714
30.3553
30.3405
30.3271
30.3149
30.304
30.2944
30.286
30.2788
30.2727
30.2678
30.2641
30.2614
30.2599
30.2594
30.2599
30.2615
30.264
30.2675
30.272
30.2773
30.2836
30.2908
30.2988
30.3076
30.3172
30.3277
30.3389
30.3508
30.3635
30.3769
30.3909
30.4056
30.421
30.437
30.4535
30.4707
30.4884
30.5067
30.5255
30.5448
30.5645
30.5848
30.6055
30.6266
30.6482
30.6701
30.6924
30.7151
30.7381
30.7614
30.7851
30.8091
30.8333
30.8578
30.8825
30.9075
30.9327
30.9581
30.9837
31.0095
31.0354
31.0615
31.0877
31.114
31.1405
31.167
31.1936
31.2203
31.247
31.2738
31.3006
31.3275
31.3543
31.3812
31.408
31.4348
31.4616
31.4883
31.515
31.5416
31.5681
31.5945
31.6209
31.6471
31.6733
31.6993
31.7251
31.7509
31.7765
31.8019
31.8272
31.8523
31.8772
31.9019
31.9264
31.9507
31.9749
31.9988
32.0224
32.0459
32.0691
32.092
32.1147
32.1371
32.1593
32.1812
32.2029
32.2242
32.2453
32.2661
32.2865
32.3067
32.3266
32.3461
32.3653
32.3843
32.4028
32.4211
32.439
32.4566
32.4738
32.4907
32.5073
32.5234
32.5393
32.5547
32.5698
32.5845
32.5989
32.6129
32.6265
32.6397
32.6525
32.6649
32.677
32.6886
32.6999
32.7108
32.7212
32.7313
32.741
32.7502
32.7591
32.7675
32.7755
32.7831
32.7903
32.7971
32.8035
32.8094
32.8149
32.82
32.8247
32.829
32.8328
32.8362
32.8392
32.8418
32.8439
32.8456
32.8469
32.8478
32.8482
46.788
46.7813
46.7683
46.7493
46.7248
46.695
46.6602
46.6206
46.5764
46.5277
46.4745
46.4171
46.3553
46.2894
46.2194
46.1454
46.0674
45.9856
45.8999
45.8105
45.7174
45.6208
45.5206
45.4171
45.3102
45.2
45.0867
44.9703
44.8509
44.7286
44.6035
44.4757
44.3452
44.2123
44.0768
43.939
43.799
43.6567
43.5125
43.3662
43.218
43.0681
42.9164
42.7631
42.6084
42.4522
42.2947
42.1359
41.976
41.8151
41.6532
41.4904
41.3268
41.1626
40.9977
40.8324
40.6666
40.5004
40.334
40.1674
40.0007
39.834
39.6673
39.5008
39.3345
39.1685
39.0029
38.8376
38.6729
38.5088
38.3453
38.1825
38.0205
37.8594
37.6991
37.5398
37.3815
37.2243
37.0682
36.9133
36.7596
36.6072
36.4561
36.3064
36.1581
36.0113
35.866
35.7223
35.5801
35.4396
35.3007
35.1635
35.0281
34.8944
34.7624
34.6323
34.504
34.3776
34.2531
34.1304
34.0097
33.891
33.7741
33.6593
33.5464
33.4355
33.3266
33.2198
33.1149
33.0121
32.9113
32.8126
32.7159
32.6212
32.5286
32.438
32.3495
32.263
32.1785
32.0961
32.0157
31.9373
31.8609
31.7865
31.7141
31.6436
31.5752
31.5087
31.4441
31.3815
31.3208
31.262
31.2051
31.1501
31.0969
31.0455
30.996
30.9483
30.9023
30.8581
30.8157
30.775
30.736
30.6987
30.663
30.629
30.5966
30.5658
30.5366
30.5089
30.4827
30.4581
30.4349
30.4132
30.393
30.3741
30.3567
30.3406
30.3259
30.3124
30.3003
30.2895
30.2799
30.2715
30.2643
30.2583
30.2535
30.2497
30.2471
30.2456
30.2451
30.2457
30.2473
30.2499
30.2534
30.2579
30.2633
30.2696
30.2768
30.2848
30.2936
30.3033
30.3138
30.325
30.337
30.3497
30.3631
30.3771
30.3919
30.4073
30.4233
30.4399
30.457
30.4748
30.4931
30.5119
30.5312
30.551
30.5712
30.592
30.6131
30.6347
30.6566
30.6789
30.7016
30.7247
30.748
30.7717
30.7957
30.8199
30.8445
30.8692
30.8942
30.9194
30.9448
30.9704
30.9962
31.0222
31.0483
31.0745
31.1008
31.1273
31.1538
31.1804
31.2071
31.2339
31.2607
31.2875
31.3143
31.3412
31.368
31.3949
31.4217
31.4485
31.4752
31.5019
31.5285
31.555
31.5815
31.6078
31.6341
31.6602
31.6862
31.7121
31.7379
31.7635
31.7889
31.8142
31.8393
31.8642
31.8889
31.9134
31.9378
31.9619
31.9858
32.0094
32.0329
32.0561
32.079
32.1017
32.1242
32.1464
32.1683
32.1899
32.2113
32.2323
32.2531
32.2736
32.2938
32.3136
32.3332
32.3524
32.3713
32.3899
32.4082
32.4261
32.4437
32.4609
32.4778
32.4943
32.5105
32.5263
32.5418
32.5569
32.5716
32.586
32.5999
32.6135
32.6268
32.6396
32.652
32.6641
32.6757
32.687
32.6979
32.7083
32.7184
32.728
32.7373
32.7461
32.7546
32.7626
32.7702
32.7774
32.7842
32.7906
32.7965
32.802
32.8071
32.8118
32.8161
32.8199
32.8233
32.8263
32.8289
32.831
32.8327
32.834
32.8349
32.8353
46.7252
46.7182
46.7041
46.6838
46.6576
46.6262
46.5899
46.549
46.5037
46.454
46.4001
46.3421
46.2799
46.2137
46.1434
46.0692
45.9911
45.9091
45.8234
45.7339
45.6408
45.5442
45.444
45.3405
45.2336
45.1235
45.0102
44.8939
44.7746
44.6524
44.5274
44.3996
44.2693
44.1364
44.001
43.8634
43.7234
43.5813
43.4371
43.291
43.143
42.9931
42.8416
42.6885
42.5339
42.3778
42.2205
42.0619
41.9022
41.7414
41.5796
41.417
41.2536
41.0896
40.9249
40.7597
40.5941
40.4281
40.2619
40.0955
39.929
39.7625
39.596
39.4297
39.2636
39.0978
38.9323
38.7673
38.6028
38.4389
38.2756
38.113
37.9512
37.7903
37.6302
37.4711
37.313
37.156
37.0001
36.8454
36.6919
36.5397
36.3888
36.2393
36.0913
35.9447
35.7996
35.656
35.5141
35.3737
35.2351
35.0981
34.9628
34.8293
34.6976
34.5677
34.4396
34.3134
34.189
34.0666
33.9461
33.8275
33.7108
33.5962
33.4835
33.3728
33.2641
33.1574
33.0527
32.9501
32.8495
32.7509
32.6544
32.5599
32.4674
32.377
32.2886
32.2023
32.118
32.0357
31.9555
31.8772
31.801
31.7267
31.6545
31.5842
31.5159
31.4495
31.3851
31.3226
31.2621
31.2034
31.1466
31.0917
31.0386
30.9874
30.938
30.8904
30.8446
30.8005
30.7582
30.7176
30.6787
30.6414
30.6059
30.572
30.5397
30.509
30.4798
30.4522
30.4262
30.4016
30.3786
30.3569
30.3368
30.318
30.3006
30.2846
30.27
30.2566
30.2445
30.2338
30.2242
30.2159
30.2088
30.2028
30.198
30.1944
30.1918
30.1904
30.1899
30.1905
30.1922
30.1948
30.1984
30.2029
30.2083
30.2147
30.2219
30.2299
30.2388
30.2485
30.259
30.2703
30.2823
30.295
30.3084
30.3225
30.3373
30.3527
30.3687
30.3853
30.4025
30.4203
30.4385
30.4574
30.4767
30.4965
30.5168
30.5375
30.5586
30.5802
30.6022
30.6245
30.6472
30.6702
30.6936
30.7173
30.7412
30.7655
30.79
30.8147
30.8397
30.8649
30.8904
30.9159
30.9417
30.9677
30.9937
31.0199
31.0463
31.0727
31.0992
31.1259
31.1525
31.1793
31.206
31.2329
31.2597
31.2865
31.3134
31.3402
31.367
31.3937
31.4205
31.4471
31.4737
31.5002
31.5267
31.553
31.5792
31.6053
31.6313
31.6572
31.6829
31.7085
31.7339
31.7592
31.7842
31.8091
31.8339
31.8584
31.8827
31.9068
31.9306
31.9543
31.9777
32.0009
32.0238
32.0465
32.0689
32.0911
32.113
32.1346
32.1559
32.177
32.1977
32.2182
32.2384
32.2582
32.2777
32.297
32.3158
32.3344
32.3527
32.3706
32.3881
32.4053
32.4222
32.4387
32.4549
32.4707
32.4862
32.5012
32.5159
32.5303
32.5442
32.5578
32.571
32.5838
32.5963
32.6083
32.62
32.6312
32.6421
32.6525
32.6626
32.6722
32.6815
32.6903
32.6987
32.7067
32.7143
32.7215
32.7283
32.7347
32.7406
32.7461
32.7512
32.7559
32.7602
32.764
32.7674
32.7704
32.7729
32.7751
32.7768
32.7781
32.7789
32.7793
46.6982
46.6913
46.6774
46.6574
46.6315
46.6004
46.5642
46.5234
46.4781
46.4284
46.3744
46.3162
46.2539
46.1875
46.1171
46.0427
45.9644
45.8823
45.7964
45.7068
45.6135
45.5168
45.4165
45.3128
45.2058
45.0956
44.9822
44.8658
44.7464
44.6241
44.499
44.3711
44.2407
44.1077
43.9723
43.8345
43.6945
43.5523
43.4081
43.2619
43.1138
42.9639
42.8123
42.6591
42.5044
42.3483
42.1909
42.0323
41.8725
41.7117
41.5499
41.3872
41.2238
41.0597
40.895
40.7298
40.5641
40.3981
40.2318
40.0654
39.8989
39.7323
39.5659
39.3995
39.2334
39.0676
38.9021
38.7371
38.5726
38.4087
38.2454
38.0828
37.921
37.7601
37.6
37.4409
37.2828
37.1258
36.97
36.8153
36.6618
36.5096
36.3588
36.2093
36.0613
35.9147
35.7696
35.6261
35.4842
35.3439
35.2053
35.0683
34.9331
34.7997
34.668
34.5381
34.4101
34.2839
34.1596
34.0372
33.9168
33.7982
33.6817
33.5671
33.4544
33.3438
33.2352
33.1285
33.0239
32.9214
32.8208
32.7223
32.6259
32.5314
32.4391
32.3487
32.2604
32.1742
32.0899
32.0077
31.9275
31.8494
31.7732
31.699
31.6269
31.5567
31.4884
31.4221
31.3578
31.2954
31.2349
31.1763
31.1196
31.0648
31.0118
30.9607
30.9113
30.8638
30.818
30.7741
30.7318
30.6913
30.6525
30.6153
30.5798
30.546
30.5138
30.4831
30.4541
30.4266
30.4006
30.3761
30.3531
30.3316
30.3115
30.2928
30.2755
30.2596
30.245
30.2317
30.2197
30.209
30.1995
30.1913
30.1842
30.1783
30.1736
30.17
30.1675
30.1661
30.1657
30.1664
30.1681
30.1708
30.1744
30.179
30.1845
30.1909
30.1982
30.2063
30.2152
30.225
30.2355
30.2468
30.2589
30.2717
30.2851
30.2993
30.3141
30.3295
30.3456
30.3623
30.3795
30.3973
30.4157
30.4345
30.4539
30.4737
30.4941
30.5148
30.536
30.5576
30.5796
30.602
30.6247
30.6478
30.6712
30.6949
30.7189
30.7432
30.7677
30.7925
30.8175
30.8428
30.8682
30.8938
30.9196
30.9456
30.9717
30.9979
31.0243
31.0508
31.0773
31.104
31.1307
31.1574
31.1842
31.2111
31.2379
31.2648
31.2916
31.3185
31.3453
31.3721
31.3988
31.4255
31.4521
31.4786
31.5051
31.5314
31.5577
31.5838
31.6098
31.6357
31.6614
31.687
31.7125
31.7377
31.7628
31.7877
31.8125
31.837
31.8613
31.8854
31.9093
31.9329
31.9564
31.9796
32.0025
32.0252
32.0476
32.0698
32.0917
32.1133
32.1347
32.1557
32.1765
32.197
32.2171
32.237
32.2565
32.2757
32.2946
32.3132
32.3315
32.3494
32.3669
32.3842
32.401
32.4176
32.4337
32.4496
32.465
32.4801
32.4948
32.5091
32.5231
32.5367
32.5499
32.5627
32.5751
32.5872
32.5988
32.6101
32.621
32.6314
32.6415
32.6511
32.6604
32.6692
32.6776
32.6856
32.6933
32.7004
32.7072
32.7136
32.7195
32.725
32.7301
32.7348
32.7391
32.7429
32.7463
32.7493
32.7519
32.754
32.7557
32.757
32.7578
32.7583
46.639
46.632
46.6178
46.5974
46.5709
46.5391
46.5023
46.4608
46.4148
46.3645
46.3099
46.2512
46.1884
46.1217
46.0509
45.9763
45.8977
45.8154
45.7293
45.6396
45.5462
45.4493
45.3489
45.2452
45.1381
45.0278
44.9144
44.7979
44.6785
44.5561
44.431
44.3031
44.1727
44.0397
43.9043
43.7665
43.6265
43.4843
43.3401
43.1939
43.0458
42.896
42.7444
42.5913
42.4366
42.2806
42.1232
41.9646
41.8049
41.6441
41.4824
41.3198
41.1565
40.9924
40.8278
40.6627
40.4971
40.3312
40.165
39.9987
39.8322
39.6658
39.4994
39.3332
39.1672
39.0015
38.8361
38.6712
38.5068
38.343
38.1798
38.0174
37.8557
37.6949
37.535
37.376
37.2181
37.0612
36.9055
36.7509
36.5976
36.4456
36.2949
36.1455
35.9977
35.8512
35.7063
35.563
35.4212
35.281
35.1426
35.0058
34.8707
34.7374
34.6059
34.4762
34.3483
34.2223
34.0982
33.9759
33.8556
33.7373
33.6208
33.5064
33.3939
33.2834
33.175
33.0685
32.9641
32.8617
32.7613
32.6629
32.5666
32.4724
32.3801
32.29
32.2018
32.1157
32.0316
31.9496
31.8695
31.7915
31.7155
31.6415
31.5695
31.4994
31.4313
31.3652
31.301
31.2387
31.1784
31.1199
31.0634
31.0087
30.9558
30.9048
30.8556
30.8082
30.7626
30.7188
30.6767
30.6363
30.5976
30.5605
30.5252
30.4915
30.4594
30.4288
30.3999
30.3725
30.3466
30.3223
30.2994
30.278
30.258
30.2394
30.2222
30.2064
30.1919
30.1787
30.1668
30.1562
30.1468
30.1386
30.1317
30.1259
30.1212
30.1177
30.1153
30.114
30.1137
30.1145
30.1162
30.119
30.1227
30.1274
30.1329
30.1394
30.1467
30.1549
30.1639
30.1737
30.1844
30.1957
30.2078
30.2206
30.2342
30.2484
30.2632
30.2787
30.2949
30.3116
30.3289
30.3467
30.3651
30.384
30.4034
30.4233
30.4436
30.4644
30.4857
30.5073
30.5293
30.5517
30.5745
30.5976
30.621
30.6448
30.6688
30.6931
30.7177
30.7425
30.7675
30.7928
30.8183
30.8439
30.8697
30.8957
30.9218
30.9481
30.9745
31.001
31.0275
31.0542
31.0809
31.1077
31.1345
31.1613
31.1882
31.215
31.2419
31.2688
31.2956
31.3224
31.3491
31.3758
31.4024
31.429
31.4554
31.4818
31.508
31.5342
31.5602
31.5861
31.6118
31.6374
31.6628
31.6881
31.7132
31.7381
31.7628
31.7873
31.8116
31.8357
31.8596
31.8833
31.9067
31.9299
31.9528
31.9755
31.998
32.0201
32.042
32.0636
32.085
32.106
32.1268
32.1472
32.1674
32.1873
32.2068
32.226
32.2449
32.2635
32.2817
32.2996
32.3172
32.3344
32.3513
32.3678
32.384
32.3998
32.4152
32.4303
32.445
32.4593
32.4733
32.4869
32.5001
32.5129
32.5253
32.5374
32.549
32.5603
32.5711
32.5816
32.5916
32.6013
32.6105
32.6193
32.6278
32.6358
32.6434
32.6506
32.6573
32.6637
32.6696
32.6752
32.6803
32.6849
32.6892
32.693
32.6964
32.6994
32.702
32.7041
32.7058
32.7071
32.7079
32.7084
46.6051
46.5983
46.5844
46.5643
46.5381
46.5066
46.4699
46.4286
46.3826
46.3322
46.2776
46.2187
46.1558
46.0888
46.0179
45.943
45.8642
45.7817
45.6954
45.6054
45.5119
45.4148
45.3142
45.2103
45.103
44.9925
44.8789
44.7623
44.6427
44.5202
44.3949
44.2669
44.1363
44.0031
43.8676
43.7297
43.5895
43.4472
43.3029
43.1565
43.0083
42.8584
42.7067
42.5535
42.3987
42.2425
42.0851
41.9264
41.7665
41.6057
41.4439
41.2812
41.1178
40.9536
40.7889
40.6237
40.4581
40.2921
40.1259
39.9595
39.793
39.6265
39.46
39.2938
39.1277
38.962
38.7966
38.6316
38.4672
38.3034
38.1402
37.9777
37.816
37.6552
37.4953
37.3363
37.1783
37.0215
36.8657
36.7112
36.5579
36.4059
36.2552
36.1059
35.958
35.8116
35.6667
35.5234
35.3817
35.2416
35.1031
34.9664
34.8314
34.6981
34.5667
34.437
34.3092
34.1832
34.0592
33.937
33.8168
33.6985
33.5821
33.4677
33.3554
33.245
33.1366
33.0302
32.9258
32.8235
32.7232
32.625
32.5287
32.4346
32.3424
32.2524
32.1643
32.0783
31.9943
31.9124
31.8324
31.7545
31.6786
31.6047
31.5328
31.4628
31.3949
31.3288
31.2648
31.2026
31.1424
31.084
31.0276
30.973
30.9203
30.8694
30.8203
30.773
30.7275
30.6837
30.6417
30.6015
30.5629
30.526
30.4907
30.4571
30.4251
30.3947
30.3659
30.3386
30.3128
30.2886
30.2658
30.2445
30.2246
30.2061
30.189
30.1733
30.1589
30.1458
30.1341
30.1235
30.1143
30.1062
30.0993
30.0937
30.0891
30.0857
30.0834
30.0822
30.082
30.0828
30.0847
30.0875
30.0913
30.0961
30.1017
30.1083
30.1157
30.124
30.1331
30.143
30.1537
30.1651
30.1773
30.1902
30.2038
30.2181
30.2331
30.2486
30.2648
30.2816
30.299
30.3169
30.3354
30.3543
30.3738
30.3938
30.4142
30.435
30.4563
30.478
30.5001
30.5226
30.5454
30.5686
30.5921
30.6159
30.64
30.6643
30.6889
30.7138
30.7389
30.7642
30.7897
30.8154
30.8413
30.8673
30.8935
30.9198
30.9462
30.9727
30.9994
31.026
31.0528
31.0796
31.1065
31.1333
31.1602
31.1872
31.2141
31.2409
31.2678
31.2946
31.3214
31.3481
31.3748
31.4013
31.4278
31.4542
31.4805
31.5067
31.5327
31.5586
31.5844
31.61
31.6354
31.6607
31.6859
31.7108
31.7355
31.7601
31.7844
31.8085
31.8324
31.8561
31.8796
31.9028
31.9257
31.9484
31.9709
31.9931
32.015
32.0366
32.058
32.079
32.0998
32.1203
32.1405
32.1603
32.1799
32.1991
32.218
32.2366
32.2548
32.2728
32.2903
32.3076
32.3245
32.341
32.3572
32.373
32.3884
32.4035
32.4182
32.4326
32.4465
32.4601
32.4733
32.4862
32.4986
32.5106
32.5223
32.5335
32.5444
32.5549
32.5649
32.5746
32.5838
32.5927
32.6011
32.6091
32.6167
32.6239
32.6307
32.637
32.643
32.6485
32.6536
32.6583
32.6625
32.6664
32.6698
32.6728
32.6753
32.6775
32.6792
32.6804
32.6813
32.6817
46.5494
46.5425
46.5286
46.5084
46.4821
46.4504
46.4134
46.3717
46.3253
46.2746
46.2195
46.1603
46.097
46.0297
45.9583
45.8831
45.8041
45.7213
45.6347
45.5445
45.4507
45.3534
45.2527
45.1486
45.0412
44.9305
44.8168
44.7
44.5802
44.4576
44.3322
44.2041
44.0733
43.9401
43.8044
43.6664
43.5262
43.3838
43.2394
43.093
42.9447
42.7947
42.643
42.4896
42.3348
42.1786
42.0211
41.8624
41.7025
41.5416
41.3798
41.2171
41.0536
40.8895
40.7248
40.5595
40.3939
40.2279
40.0617
39.8953
39.7288
39.5623
39.3959
39.2297
39.0637
38.8979
38.7326
38.5677
38.4033
38.2395
38.0764
37.914
37.7523
37.5916
37.4317
37.2728
37.1149
36.9581
36.8025
36.648
36.4948
36.3429
36.1923
36.0431
35.8953
35.749
35.6042
35.461
35.3194
35.1794
35.041
34.9044
34.7695
34.6364
34.5051
34.3755
34.2478
34.122
33.9981
33.876
33.7559
33.6378
33.5216
33.4073
33.2951
33.1848
33.0766
32.9703
32.8661
32.764
32.6638
32.5657
32.4697
32.3756
32.2837
32.1937
32.1058
32.02
31.9361
31.8543
31.7746
31.6968
31.6211
31.5473
31.4755
31.4058
31.3379
31.2721
31.2081
31.1462
31.0861
31.0279
30.9716
30.9172
30.8646
30.8138
30.7649
30.7178
30.6724
30.6288
30.587
30.5468
30.5084
30.4717
30.4366
30.4031
30.3712
30.341
30.3123
30.2852
30.2595
30.2354
30.2128
30.1916
30.1718
30.1535
30.1365
30.1209
30.1067
30.0937
30.0821
30.0717
30.0625
30.0546
30.0479
30.0423
30.0379
30.0346
30.0324
30.0313
30.0312
30.0321
30.0341
30.0371
30.041
30.0458
30.0516
30.0582
30.0658
30.0741
30.0833
30.0933
30.1041
30.1156
30.1279
30.1409
30.1546
30.169
30.184
30.1997
30.2159
30.2328
30.2502
30.2682
30.2868
30.3058
30.3254
30.3454
30.3659
30.3868
30.4082
30.4299
30.4521
30.4746
30.4975
30.5207
30.5443
30.5681
30.5923
30.6167
30.6414
30.6663
30.6914
30.7168
30.7423
30.7681
30.794
30.8201
30.8463
30.8726
30.8991
30.9257
30.9523
30.979
31.0058
31.0327
31.0596
31.0865
31.1134
31.1404
31.1673
31.1942
31.2211
31.2479
31.2747
31.3015
31.3282
31.3548
31.3813
31.4077
31.434
31.4602
31.4862
31.5122
31.5379
31.5636
31.5891
31.6144
31.6395
31.6644
31.6892
31.7138
31.7381
31.7623
31.7862
31.8099
31.8333
31.8565
31.8795
31.9022
31.9247
31.9469
31.9688
31.9905
32.0118
32.0329
32.0537
32.0742
32.0943
32.1142
32.1338
32.153
32.1719
32.1905
32.2088
32.2267
32.2443
32.2615
32.2784
32.2949
32.3111
32.3269
32.3424
32.3575
32.3722
32.3865
32.4005
32.4141
32.4273
32.4401
32.4526
32.4646
32.4763
32.4875
32.4984
32.5089
32.5189
32.5286
32.5378
32.5467
32.5551
32.5631
32.5707
32.5779
32.5847
32.591
32.597
32.6025
32.6076
32.6123
32.6165
32.6204
32.6238
32.6268
32.6293
32.6315
32.6332
32.6345
32.6353
32.6357
46.5113
46.5045
46.4908
46.4709
46.4449
46.4135
46.3767
46.3351
46.2887
46.238
46.1828
46.1234
46.0599
45.9923
45.9208
45.8453
45.766
45.6829
45.5961
45.5057
45.4116
45.314
45.213
45.1087
45.001
44.8901
44.7761
44.6591
44.5391
44.4163
44.2906
44.1623
44.0314
43.8979
43.762
43.6238
43.4834
43.3408
43.1962
43.0496
42.9012
42.7509
42.599
42.4456
42.2906
42.1342
41.9765
41.8176
41.6576
41.4966
41.3346
41.1718
41.0082
40.8439
40.6791
40.5137
40.348
40.1819
40.0155
39.849
39.6825
39.5159
39.3494
39.183
39.0169
38.8511
38.6857
38.5207
38.3563
38.1925
38.0293
37.8668
37.7051
37.5443
37.3844
37.2255
37.0676
36.9108
36.7551
36.6006
36.4474
36.2955
36.1449
35.9957
35.8479
35.7016
35.5569
35.4137
35.2721
35.1321
34.9938
34.8572
34.7224
34.5893
34.458
34.3285
34.2009
34.0752
33.9513
33.8293
33.7093
33.5912
33.4751
33.3609
33.2488
33.1386
33.0304
32.9243
32.8202
32.7181
32.6181
32.5201
32.4241
32.3302
32.2383
32.1485
32.0607
31.975
31.8913
31.8096
31.73
31.6524
31.5767
31.5031
31.4315
31.3618
31.2941
31.2284
31.1646
31.1028
31.0428
30.9848
30.9286
30.8743
30.8219
30.7713
30.7225
30.6755
30.6303
30.5868
30.5451
30.5051
30.4669
30.4302
30.3953
30.362
30.3303
30.3001
30.2716
30.2446
30.2191
30.1952
30.1727
30.1516
30.132
30.1138
30.097
30.0815
30.0674
30.0546
30.0431
30.0328
30.0238
30.016
30.0094
30.004
29.9997
29.9965
29.9944
29.9935
29.9935
29.9946
29.9967
29.9998
30.0038
30.0088
30.0147
30.0214
30.0291
30.0376
30.0469
30.057
30.0679
30.0795
30.0919
30.105
30.1188
30.1333
30.1484
30.1642
30.1806
30.1975
30.2151
30.2332
30.2518
30.2709
30.2906
30.3107
30.3313
30.3523
30.3738
30.3956
30.4178
30.4405
30.4634
30.4867
30.5104
30.5343
30.5585
30.583
30.6078
30.6328
30.658
30.6834
30.709
30.7349
30.7608
30.787
30.8133
30.8397
30.8662
30.8928
30.9195
30.9463
30.9732
31.0001
31.027
31.054
31.081
31.108
31.135
31.1619
31.1889
31.2158
31.2426
31.2694
31.2961
31.3228
31.3493
31.3758
31.4021
31.4284
31.4545
31.4804
31.5063
31.5319
31.5575
31.5828
31.608
31.633
31.6577
31.6823
31.7067
31.7309
31.7549
31.7786
31.8021
31.8253
31.8483
31.8711
31.8935
31.9158
31.9377
31.9594
31.9808
32.0019
32.0227
32.0432
32.0634
32.0833
32.1029
32.1221
32.141
32.1597
32.1779
32.1959
32.2135
32.2307
32.2476
32.2642
32.2804
32.2962
32.3117
32.3268
32.3415
32.3559
32.3699
32.3835
32.3967
32.4095
32.422
32.434
32.4457
32.457
32.4678
32.4783
32.4884
32.498
32.5073
32.5161
32.5246
32.5326
32.5402
32.5474
32.5542
32.5605
32.5665
32.572
32.5771
32.5818
32.5861
32.5899
32.5933
32.5963
32.5989
32.601
32.6027
32.604
32.6049
32.6053
46.4585
46.4517
46.4381
46.4183
46.3923
46.3608
46.3239
46.2821
46.2355
46.1845
46.129
46.0693
46.0054
45.9375
45.8656
45.7899
45.7102
45.6268
45.5397
45.4489
45.3546
45.2568
45.1555
45.0508
44.9429
44.8318
44.7176
44.6003
44.4801
44.3571
44.2312
44.1027
43.9715
43.8379
43.7018
43.5635
43.4228
43.2801
43.1353
42.9885
42.8399
42.6895
42.5375
42.3839
42.2288
42.0722
41.9144
41.7554
41.5953
41.4341
41.272
41.1091
40.9454
40.781
40.6161
40.4506
40.2848
40.1186
39.9522
39.7857
39.619
39.4524
39.2858
39.1194
38.9533
38.7875
38.622
38.457
38.2926
38.1287
37.9655
37.803
37.6414
37.4805
37.3206
37.1617
37.0038
36.8471
36.6914
36.537
36.3838
36.2319
36.0813
35.9322
35.7845
35.6383
35.4936
35.3504
35.2089
35.069
34.9308
34.7943
34.6596
34.5266
34.3954
34.266
34.1385
34.0128
33.8891
33.7672
33.6473
33.5293
33.4133
33.2993
33.1873
33.0772
32.9692
32.8632
32.7592
32.6573
32.5574
32.4595
32.3637
32.27
32.1783
32.0886
32.001
31.9154
31.8319
31.7504
31.6709
31.5934
31.5179
31.4445
31.373
31.3035
31.236
31.1704
31.1068
31.0451
30.9854
30.9275
30.8715
30.8174
30.7651
30.7147
30.6661
30.6193
30.5742
30.531
30.4894
30.4496
30.4115
30.3751
30.3403
30.3071
30.2756
30.2456
30.2173
30.1904
30.1651
30.1413
30.119
30.0981
30.0787
30.0606
30.044
30.0287
30.0147
30.0021
29.9907
29.9806
29.9717
29.9641
29.9576
29.9524
29.9482
29.9452
29.9433
29.9424
29.9426
29.9439
29.9461
29.9493
29.9535
29.9586
29.9646
29.9715
29.9793
29.9879
29.9973
30.0076
30.0186
30.0304
30.0429
30.0561
30.07
30.0846
30.0999
30.1157
30.1322
30.1493
30.1669
30.1851
30.2039
30.2231
30.2429
30.2631
30.2838
30.3049
30.3264
30.3484
30.3707
30.3934
30.4165
30.4399
30.4636
30.4876
30.5119
30.5365
30.5613
30.5864
30.6117
30.6372
30.6629
30.6888
30.7148
30.741
30.7674
30.7939
30.8204
30.8471
30.8739
30.9008
30.9277
30.9546
30.9816
31.0087
31.0357
31.0628
31.0898
31.1168
31.1438
31.1708
31.1976
31.2245
31.2513
31.2779
31.3045
31.331
31.3574
31.3837
31.4098
31.4358
31.4617
31.4874
31.513
31.5383
31.5635
31.5886
31.6134
31.638
31.6624
31.6866
31.7106
31.7344
31.7579
31.7812
31.8042
31.827
31.8495
31.8717
31.8937
31.9154
31.9368
31.9579
31.9787
31.9993
32.0195
32.0394
32.059
32.0783
32.0972
32.1158
32.1341
32.1521
32.1697
32.187
32.2039
32.2204
32.2367
32.2525
32.268
32.2831
32.2978
32.3122
32.3262
32.3398
32.3531
32.3659
32.3784
32.3904
32.4021
32.4134
32.4242
32.4347
32.4448
32.4545
32.4637
32.4726
32.481
32.4891
32.4967
32.5039
32.5107
32.517
32.523
32.5285
32.5336
32.5383
32.5426
32.5464
32.5498
32.5528
32.5554
32.5575
32.5592
32.5605
32.5614
32.5618
46.4179
46.4112
46.3978
46.3782
46.3524
46.3211
46.2843
46.2426
46.196
46.1449
46.0893
46.0294
45.9653
45.8972
45.825
45.749
45.669
45.5853
45.4979
45.4068
45.3122
45.214
45.1124
45.0075
44.8992
44.7878
44.6733
44.5557
44.4352
44.3119
44.1857
44.0569
43.9255
43.7916
43.6553
43.5166
43.3757
43.2327
43.0877
42.9407
42.7918
42.6412
42.4889
42.335
42.1797
42.0229
41.8649
41.7057
41.5453
41.384
41.2217
41.0585
40.8946
40.7301
40.565
40.3994
40.2333
40.067
39.9004
39.7337
39.5669
39.4002
39.2335
39.067
38.9007
38.7347
38.5692
38.4041
38.2395
38.0755
37.9123
37.7497
37.588
37.4271
37.2671
37.1081
36.9502
36.7934
36.6377
36.4832
36.33
36.178
36.0275
35.8783
35.7306
35.5844
35.4397
35.2966
35.1551
35.0152
34.877
34.7405
34.6058
34.4729
34.3417
34.2124
34.0849
33.9593
33.8356
33.7139
33.594
33.4761
33.3602
33.2463
33.1343
33.0244
32.9165
32.8106
32.7067
32.6049
32.5051
32.4074
32.3117
32.2181
32.1265
32.037
31.9495
31.864
31.7806
31.6993
31.6199
31.5426
31.4673
31.394
31.3227
31.2533
31.186
31.1206
31.0571
30.9956
30.936
30.8783
30.8225
30.7685
30.7164
30.6662
30.6177
30.5711
30.5262
30.4831
30.4418
30.4021
30.3642
30.3279
30.2933
30.2603
30.229
30.1992
30.171
30.1443
30.1192
30.0956
30.0734
30.0527
30.0334
30.0156
29.9991
29.984
29.9702
29.9577
29.9465
29.9366
29.9279
29.9204
29.9141
29.909
29.905
29.9022
29.9004
29.8997
29.9001
29.9015
29.9039
29.9072
29.9116
29.9168
29.923
29.9301
29.938
29.9467
29.9563
29.9667
29.9779
29.9898
30.0024
30.0158
30.0299
30.0446
30.06
30.076
30.0926
30.1098
30.1276
30.1459
30.1648
30.1841
30.204
30.2243
30.2451
30.2664
30.288
30.3101
30.3325
30.3553
30.3785
30.402
30.4258
30.4499
30.4743
30.499
30.524
30.5491
30.5745
30.6001
30.6259
30.6519
30.678
30.7043
30.7308
30.7573
30.784
30.8108
30.8376
30.8646
30.8916
30.9186
30.9457
30.9728
30.9999
31.027
31.0541
31.0812
31.1083
31.1353
31.1623
31.1892
31.216
31.2427
31.2694
31.2959
31.3224
31.3487
31.3749
31.401
31.4269
31.4527
31.4783
31.5037
31.5289
31.554
31.5789
31.6035
31.628
31.6523
31.6763
31.7001
31.7236
31.7469
31.77
31.7928
31.8154
31.8376
31.8597
31.8814
31.9028
31.924
31.9448
31.9654
31.9856
32.0056
32.0252
32.0445
32.0635
32.0821
32.1005
32.1184
32.1361
32.1534
32.1703
32.1869
32.2031
32.219
32.2345
32.2496
32.2644
32.2788
32.2928
32.3064
32.3197
32.3325
32.345
32.3571
32.3688
32.3801
32.391
32.4014
32.4115
32.4212
32.4305
32.4394
32.4478
32.4558
32.4635
32.4707
32.4775
32.4839
32.4898
32.4953
32.5005
32.5052
32.5094
32.5133
32.5167
32.5197
32.5222
32.5244
32.5261
32.5274
32.5282
32.5287
46.3674
46.3608
46.3475
46.3279
46.3022
46.2709
46.2341
46.1923
46.1455
46.0942
46.0383
45.9782
45.9138
45.8453
45.7728
45.6964
45.6161
45.532
45.4442
45.3528
45.2578
45.1593
45.0574
44.9521
44.8436
44.7318
44.617
44.4991
44.3783
44.2546
44.1282
43.9991
43.8674
43.7332
43.5966
43.4577
43.3166
43.1733
43.028
42.8807
42.7316
42.5808
42.4282
42.2741
42.1186
41.9616
41.8034
41.6439
41.4834
41.3218
41.1593
40.996
40.8319
40.6672
40.5019
40.3361
40.17
40.0035
39.8368
39.6699
39.503
39.3361
39.1693
39.0027
38.8363
38.6702
38.5046
38.3394
38.1747
38.0107
37.8473
37.6847
37.5229
37.362
37.202
37.043
36.885
36.7281
36.5724
36.4179
36.2647
36.1128
35.9622
35.8131
35.6654
35.5192
35.3745
35.2314
35.09
34.9501
34.812
34.6756
34.5409
34.4081
34.277
34.1477
34.0204
33.8949
33.7713
33.6496
33.5298
33.4121
33.2962
33.1824
33.0706
32.9608
32.853
32.7472
32.6435
32.5418
32.4422
32.3446
32.2491
32.1556
32.0642
31.9748
31.8875
31.8022
31.719
31.6378
31.5586
31.4814
31.4063
31.3332
31.262
31.1929
31.1257
31.0605
30.9972
30.9359
30.8765
30.819
30.7634
30.7096
30.6577
30.6076
30.5594
30.5129
30.4683
30.4254
30.3842
30.3448
30.307
30.271
30.2365
30.2038
30.1726
30.143
30.115
30.0886
30.0636
30.0402
30.0183
29.9977
29.9787
29.961
29.9447
29.9298
29.9162
29.9039
29.8929
29.8831
29.8746
29.8673
29.8612
29.8563
29.8525
29.8498
29.8482