/*--------------------------------*- C++ -*----------------------------------*\
| =========                 |                                                 |
| \\      /  F ield         | OpenFOAM: The Open Source CFD Toolbox           |
|  \\    /   O peration     | Version:  2212                                  |
|   \\  /    A nd           | Website:  www.openfoam.com                      |
|    \\/     M anipulation  |                                                 |
\*---------------------------------------------------------------------------*/
FoamFile
{
    version     2.0;
    format      ascii;
    arch        "LSB;label=32;scalar=64";
    class       surfaceScalarField;
    location    "630";
    object      phi;
}
// * * * * * * * * * * * * * * * * * * * * * * * * * * * * * * * * * * * * * //

dimensions      [1 0 -1 0 0 0 0];

oriented        oriented;

internalField   nonuniform List<scalar> 
408640
(
-1398.62
1400
-2759.56
1361.08
-4046.97
1287.55
-5241.33
1194.51
-6339.79
1098.62
-7351.96
1012.34
-8294.76
942.982
-9187.02
892.448
-10045.8
859.022
-10884.7
839.068
-11713.1
828.582
-12536.9
824.041
-13359.5
822.771
-14182.3
822.954
-15005.5
823.469
-15829
823.7
-16652.2
823.354
-17474.3
822.328
-18294.8
820.623
-19112.8
818.285
-19928
815.378
-20739.8
811.964
-21547.7
808.104
-22351.4
803.845
-23150.4
799.231
-23944.5
794.296
-24733.4
789.069
-25516.8
783.576
-26294.5
777.835
-27066.2
771.866
-27831.7
765.683
-28590.8
759.298
-29343.4
752.724
-30089.2
745.971
-30828.1
739.048
-31559.9
731.963
-32284.4
724.724
-33001.6
717.337
-33711.3
709.81
-34413.2
702.149
-35107.5
694.358
-35793.8
686.445
-36472
678.413
-37142.1
670.268
-37804
662.015
-38457.5
653.659
-39102.6
645.203
-39739.1
636.653
-40367
628.013
-40986.1
619.287
-41596.5
610.479
-42198
601.593
-42790.5
592.633
-43373.9
583.604
-43948.3
574.508
-44513.6
565.351
-45069.6
556.135
-45616.3
546.864
-46153.8
537.543
-46681.8
528.174
-47200.5
518.762
-47709.7
509.309
-48209.4
499.82
-48699.6
490.298
-49180.3
480.746
-49651.3
471.167
-50112.8
461.566
-50564.7
451.945
-51006.9
442.307
-51439.4
432.657
-51862.4
422.996
-52275.6
413.329
-52679.2
403.657
-53073.1
393.985
-53457.3
384.315
-53831.9
374.65
-54196.8
364.994
-54552.1
355.348
-54897.8
345.716
-55233.8
336.1
-55560.2
326.504
-55877.1
316.929
-56184.4
307.379
-56482.2
297.856
-56770.5
288.363
-57049.4
278.901
-57318.8
269.474
-57578.9
260.083
-57829.5
250.732
-58070.9
241.421
-58303
232.154
-58525.9
222.933
-58739.7
213.759
-58944.3
204.635
-59139.8
195.562
-59326.3
186.543
-59503.8
177.579
-59672.5
168.673
-59832.3
159.825
-59983.3
151.038
-60125.6
142.312
-60259.2
133.651
-60384.3
125.055
-60500.8
116.525
-60608.8
108.064
-60708.5
99.6721
-60799.8
91.3509
-60882.9
83.1017
-60957.9
74.9256
-61024.7
66.8239
-61083.5
58.7975
-61134.3
50.8475
-61177.3
42.9749
-61212.5
35.1806
-61240
27.4654
-61259.8
19.8302
-61272.1
12.2757
-61276.9
4.80261
-61274.3
-2.58834
-61264.5
-9.89655
-61247.4
-17.1215
-61223.1
-24.2626
-61191.8
-31.3194
-61153.6
-38.2914
-61108.4
-45.1784
-61056.5
-51.9799
-60997.8
-58.6957
-60932.5
-65.3254
-60860.7
-71.8689
-60782.4
-78.3261
-60697.8
-84.6967
-60606.8
-90.9807
-60509.7
-97.1781
-60406.5
-103.289
-60297.2
-109.313
-60182
-115.25
-60061
-121.101
-59934.2
-126.866
-59801.7
-132.544
-59663.6
-138.136
-59520
-143.643
-59371
-149.063
-59216.7
-154.399
-59057.1
-159.65
-58892.4
-164.816
-58722.6
-169.898
-58547.8
-174.896
-58368
-179.81
-58183.5
-184.642
-57994.2
-189.391
-57800.2
-194.058
-57601.7
-198.643
-57398.6
-203.148
-57191.2
-207.572
-56979.3
-211.917
-56763.3
-216.182
-56543
-220.368
-56318.6
-224.477
-56090.3
-228.508
-55857.9
-232.462
-55621.7
-236.341
-55381.7
-240.144
-55137.9
-243.873
-54890.5
-247.527
-54639.6
-251.109
-54385.1
-254.618
-54127.2
-258.055
-53865.9
-261.422
-53601.3
-264.718
-53333.5
-267.945
-53062.6
-271.103
-52788.5
-274.194
-52511.5
-277.217
-52231.4
-280.175
-51948.5
-283.067
-51662.8
-285.895
-51374.3
-288.658
-51083.1
-291.359
-50789.3
-293.998
-50492.9
-296.576
-50194
-299.093
-49892.6
-301.551
-49588.9
-303.95
-49282.8
-306.292
-48974.4
-308.576
-48663.8
-310.804
-48351
-312.977
-48036.1
-315.095
-47719.2
-317.159
-47400.2
-319.171
-47079.3
-321.131
-46756.5
-323.04
-46431.8
-324.898
-46105.3
-326.707
-45777.1
-328.467
-45447.1
-330.179
-45115.5
-331.845
-44782.3
-333.464
-44447.5
-335.038
-44111.1
-336.567
-43773.3
-338.053
-43434.1
-339.495
-43093.5
-340.896
-42751.5
-342.255
-42408.1
-343.574
-42063.5
-344.852
-41717.7
-346.092
-41370.7
-347.293
-41022.5
-348.457
-40673.2
-349.584
-40322.8
-350.676
-39971.4
-351.731
-39618.9
-352.753
-39265.4
-353.74
-38911
-354.695
-38555.7
-355.617
-38199.5
-356.507
-37842.4
-357.367
-37484.6
-358.196
-37125.9
-358.996
-36766.4
-359.766
-36406.2
-360.509
-36045.3
-361.224
-35683.7
-361.912
-35321.5
-362.573
-34958.6
-363.21
-34595.1
-363.821
-34231
-364.407
-33866.4
-364.97
-33501.2
-365.51
-33135.5
-366.027
-32769.4
-366.522
-32402.7
-366.996
-32035.6
-367.448
-31668.1
-367.881
-31300.2
-368.294
-30931.8
-368.688
-30563.1
-369.063
-30194.1
-369.42
-29824.7
-369.759
-29455
-370.082
-29085
-370.388
-28714.7
-370.678
-28344.1
-370.952
-27973.3
-371.211
-27602.2
-371.456
-27230.9
-371.687
-26859.4
-371.904
-26487.7
-372.108
-26115.8
-372.299
-25743.7
-372.478
-25371.5
-372.645
-24999.1
-372.8
-24626.5
-372.945
-24253.9
-373.079
-23881.1
-373.203
-23508.2
-373.316
-23135.2
-373.421
-22762.1
-373.516
-22388.9
-373.603
-22015.6
-373.681
-21642.3
-373.752
-21268.9
-373.815
-20895.5
-373.87
-20522
-373.919
-20148.5
-373.961
-19774.9
-373.997
-19401.3
-374.027
-19027.7
-374.051
-18654.1
-374.07
-18280.5
-374.084
-17906.8
-374.093
-17533.2
-374.097
-17159.5
-374.098
-16785.9
-374.094
-16412.3
-374.087
-16038.6
-374.076
-15665
-374.062
-15291.5
-374.045
-14917.9
-374.026
-14544.4
-374.004
-14170.8
-373.98
-13797.4
-373.953
-13423.9
-373.925
-13050.5
-373.896
-12677.1
-373.864
-12303.7
-373.832
-11930.4
-373.799
-11557.1
-373.765
-11183.9
-373.73
-10810.6
-373.694
-10437.5
-373.659
-10064.3
-373.623
-9691.22
-373.587
-9318.15
-373.551
-8945.12
-373.515
-8572.13
-373.48
-8199.17
-373.446
-7826.25
-373.412
-7453.35
-373.379
-7080.5
-373.348
-6707.67
-373.317
-6334.87
-373.288
-5962.11
-373.26
-5589.37
-373.233
-5216.65
-373.209
-4843.96
-373.187
-4471.28
-373.166
-4098.63
-373.148
-3725.99
-373.132
-3353.37
-373.119
-2980.76
-373.108
-2608.16
-373.1
-2235.56
-373.094
-1862.97
-373.09
-1490.37
-373.089
-1117.78
-373.089
-745.19
-373.09
-372.596
-373.092
-373.093
-1375.5
2775.63
-2715.63
2701.35
-3988.33
2560.39
-5175.29
2381.63
-6272.86
2196.35
-7288.98
2028.64
-8238.58
1892.77
-9138.78
1792.84
-10005.4
1725.87
-10851.3
1685.11
-11685.5
1662.98
-12513.9
1652.68
-13340
1649.04
-14165.3
1648.48
-14990.4
1648.77
-15815.2
1648.66
-16639.2
1647.53
-17461.8
1645.16
-18282.5
1641.5
-19100.7
1636.64
-19915.8
1630.69
-20727.4
1623.75
-21535
1615.95
-22338.4
1607.37
-23137
1598.09
-23930.7
1588.18
-24719.2
1577.69
-25502.1
1566.68
-26279.3
1555.17
-27050.4
1543.22
-27815.4
1530.84
-28574
1518.06
-29326
1504.9
-30071.3
1491.38
-30809.6
1477.53
-31540.8
1463.35
-32264.8
1448.87
-32981.4
1434.09
-33690.5
1419.04
-34391.9
1403.71
-35085.5
1388.13
-35771.2
1372.3
-36448.9
1356.24
-37118.4
1339.95
-37779.7
1323.44
-38432.6
1306.73
-39077.1
1289.82
-39713
1272.72
-40340.3
1255.44
-40958.9
1237.99
-41568.6
1220.37
-42169.5
1202.6
-42761.5
1184.69
-43344.4
1166.63
-43918.2
1148.44
-44482.8
1130.13
-45038.3
1111.7
-45584.5
1093.16
-46121.3
1074.52
-46648.8
1055.79
-47166.9
1036.97
-47675.6
1018.07
-48174.8
999.094
-48664.4
980.053
-49144.5
960.954
-49615.1
941.802
-50076
922.604
-50527.4
903.366
-50969.1
884.096
-51401.1
864.8
-51823.5
845.484
-52236.3
826.154
-52639.3
806.817
-53032.8
787.478
-53416.5
768.144
-53790.6
748.82
-54155.1
729.513
-54509.9
710.227
-54855.1
690.969
-55190.6
671.744
-55516.6
652.558
-55833.1
633.415
-56139.9
614.321
-56437.3
595.282
-56725.2
576.301
-57003.6
557.385
-57272.6
538.537
-57532.3
519.763
-57782.6
501.067
-58023.6
482.453
-58255.3
463.926
-58477.8
445.49
-58691.2
427.15
-58895.4
408.909
-59090.6
390.771
-59276.7
372.74
-59454
354.82
-59622.3
337.014
-59781.7
319.326
-59932.4
301.759
-60074.4
284.316
-60207.8
267.001
-60332.5
249.816
-60448.7
232.765
-60556.5
215.85
-60655.9
199.073
-60747
182.439
-60829.8
165.948
-60904.5
149.604
-60971.1
133.408
-61029.6
117.363
-61080.3
101.471
-61123
85.7336
-61158
70.1528
-61185.3
54.7302
-61204.9
39.4675
-61217
24.3663
-61221.7
9.42801
-61218.9
-5.34609
-61208.9
-19.9547
-61191.6
-34.3968
-61167.3
-48.6713
-61135.8
-62.7771
-61097.4
-76.7136
-61052.2
-90.4798
-61000.1
-104.075
-60941.3
-117.499
-60875.9
-130.751
-60804
-143.83
-60725.6
-156.737
-60640.9
-169.471
-60549.9
-182.031
-60452.7
-194.419
-60349.4
-206.633
-60240.1
-218.673
-60124.9
-230.541
-60003.8
-242.235
-59877
-253.757
-59744.5
-265.106
-59606.4
-276.284
-59462.8
-287.29
-59313.8
-298.124
-59159.5
-308.789
-58999.9
-319.283
-58835.2
-329.608
-58665.4
-339.765
-58490.7
-349.755
-58311
-359.577
-58126.5
-369.234
-57937.2
-378.725
-57743.3
-388.053
-57544.9
-397.217
-57341.9
-406.22
-57134.5
-415.062
-56922.8
-423.745
-56706.8
-432.269
-56486.6
-440.636
-56262.4
-448.847
-56034.1
-456.903
-55801.9
-464.806
-55565.8
-472.557
-55325.9
-480.157
-55082.3
-487.609
-54835
-494.912
-54584.2
-502.07
-54329.9
-509.082
-54072.1
-515.951
-53811
-522.679
-53546.6
-529.266
-53279
-535.715
-53008.2
-542.027
-52734.3
-548.203
-52457.5
-554.245
-52177.6
-560.155
-51894.9
-565.934
-51609.4
-571.585
-51321.1
-577.108
-51030.2
-582.505
-50736.6
-587.778
-50440.4
-592.929
-50141.7
-597.959
-49840.6
-602.87
-49537
-607.664
-49231.2
-612.342
-48923
-616.907
-48612.7
-621.358
-48300.2
-625.7
-47985.5
-629.932
-47668.8
-634.057
-47350.1
-638.077
-47029.5
-641.993
-46706.9
-645.806
-46382.5
-649.519
-46056.3
-653.134
-45728.4
-656.65
-45398.7
-660.072
-45067.4
-663.399
-44734.5
-666.634
-44400
-669.779
-44063.9
-672.834
-43726.4
-675.802
-43387.5
-678.684
-43047.2
-681.482
-42705.5
-684.197
-42362.5
-686.831
-42018.2
-689.386
-41672.7
-691.862
-41326
-694.263
-40978.1
-696.588
-40629.2
-698.839
-40279.1
-701.019
-39928
-703.128
-39575.8
-705.168
-39222.7
-707.141
-38868.7
-709.048
-38513.7
-710.889
-38157.8
-712.668
-37801.1
-714.385
-37443.6
-716.041
-37085.2
-717.638
-36726.1
-719.177
-36366.3
-720.66
-36005.8
-722.088
-35644.5
-723.462
-35282.6
-724.783
-34920.1
-726.054
-34557
-727.274
-34193.3
-728.445
-33829
-729.569
-33464.2
-730.647
-33098.9
-731.679
-32733.1
-732.668
-32366.9
-733.614
-32000.1
-734.518
-31633
-735.382
-31265.4
-736.206
-30897.5
-736.992
-30529.2
-737.741
-30160.5
-738.454
-29791.5
-739.131
-29422.2
-739.775
-29052.6
-740.385
-28682.7
-740.964
-28312.5
-741.512
-27942.1
-742.029
-27571.4
-742.518
-27200.5
-742.978
-26829.4
-743.411
-26458
-743.817
-26086.5
-744.199
-25714.9
-744.555
-25343
-744.888
-24971
-745.199
-24598.9
-745.487
-24226.6
-745.754
-23854.2
-746
-23481.7
-746.227
-23109.1
-746.435
-22736.5
-746.625
-22363.7
-746.798
-21990.8
-746.954
-21617.9
-747.094
-21244.9
-747.219
-20871.9
-747.33
-20498.8
-747.427
-20125.7
-747.51
-19752.6
-747.581
-19379.4
-747.64
-19006.2
-747.688
-18633
-747.725
-18259.8
-747.752
-17886.6
-747.77
-17513.3
-747.778
-17140.1
-747.779
-16766.9
-747.771
-16393.7
-747.756
-16020.5
-747.734
-15647.3
-747.706
-15274.1
-747.672
-14901
-747.632
-14527.8
-747.588
-14154.7
-747.539
-13781.7
-747.486
-13408.6
-747.43
-13035.6
-747.37
-12662.7
-747.307
-12289.7
-747.242
-11916.8
-747.175
-11544
-747.107
-11171.1
-747.037
-10798.3
-746.966
-10425.6
-746.894
-10052.9
-746.822
-9680.18
-746.75
-9307.54
-746.678
-8934.93
-746.607
-8562.36
-746.536
-8189.82
-746.467
-7817.32
-746.4
-7444.85
-746.334
-7072.42
-746.27
-6700.02
-746.208
-6327.65
-746.15
-5955.3
-746.094
-5582.99
-746.041
-5210.7
-745.992
-4838.43
-745.947
-4466.18
-745.906
-4093.95
-745.87
-3721.74
-745.838
-3349.54
-745.811
-2977.36
-745.789
-2605.18
-745.773
-2233.01
-745.761
-1860.84
-745.754
-1488.68
-745.751
-1116.51
-745.751
-744.343
-745.754
-372.174
-745.758
-745.764
-1347.5
4123.26
-2662.81
4016.8
-3917.5
3815.23
-5094.83
3559.11
-6190.58
3292.27
-7210.98
3049.21
-8168.69
2850.66
-9078.73
2703.06
-9955.37
2602.7
-10810.4
2540.3
-11652.4
2505.18
-12487.2
2487.67
-13318.2
2480.29
-14147.3
2477.8
-14975.3
2476.91
-15802.1
2475.7
-16627.6
2473.2
-17451.3
2469.03
-18272.6
2463.08
-19091.3
2455.44
-19906.6
2446.25
-20718.3
2435.64
-21526
2423.77
-22329.2
2410.77
-23127.7
2396.75
-23921.1
2381.8
-24709.2
2366.01
-25491.8
2349.43
-26268.6
2332.13
-27039.4
2314.16
-27803.9
2295.56
-28562.1
2276.36
-29313.6
2256.6
-30058.3
2236.31
-30796.2
2215.51
-31526.9
2194.24
-32250.4
2172.5
-32966.4
2150.33
-33675
2127.73
-34375.8
2104.74
-35068.9
2081.36
-35754.1
2057.61
-36431.2
2033.51
-37100.2
2009.07
-37760.9
1984.31
-38413.3
1959.24
-39057.2
1933.87
-39692.6
1908.22
-40319.3
1882.31
-40937.3
1856.13
-41546.5
1829.71
-42146.9
1803.06
-42738.2
1776.18
-43320.6
1749.1
-43893.8
1721.82
-44457.9
1694.35
-45012.8
1666.71
-45558.5
1638.91
-46094.8
1610.96
-46621.7
1582.86
-47139.3
1554.63
-47647.4
1526.28
-48146
1497.83
-48635.2
1469.27
-49114.7
1440.63
-49584.8
1411.9
-50045.2
1383.11
-50496
1354.26
-50937.2
1325.36
-51368.7
1296.43
-51790.6
1267.46
-52202.8
1238.47
-52605.4
1209.47
-52998.3
1180.47
-53381.6
1151.48
-53755.2
1122.5
-54119.1
1093.54
-54473.5
1064.62
-54818.2
1035.75
-55153.3
1006.92
-55478.8
978.145
-55794.8
949.439
-56101.2
920.807
-56398.1
892.256
-56685.6
863.794
-56963.6
835.429
-57232.1
807.166
-57491.3
779.014
-57741.2
750.979
-57981.8
723.068
-58213.1
695.288
-58435.2
667.644
-58648.2
640.143
-58852
612.792
-59046.8
585.595
-59232.6
558.558
-59409.5
531.688
-59577.4
504.99
-59736.5
478.468
-59886.9
452.128
-60028.5
425.974
-60161.5
400.012
-60285.9
374.246
-60401.8
348.68
-60509.3
323.318
-60608.4
298.165
-60699.1
273.224
-60781.7
248.499
-60856.1
223.994
-60922.4
199.711
-60980.7
175.655
-61031
151.828
-61073.5
128.233
-61108.2
104.873
-61135.3
81.7501
-61154.7
58.8674
-61166.6
36.2269
-61171
13.8307
-61168
-8.3191
-61157.8
-30.2208
-61140.3
-51.8726
-61115.7
-73.2729
-61084.1
-94.4204
-61045.5
-115.314
-61000.1
-135.952
-60947.9
-156.334
-60889
-176.458
-60823.4
-196.325
-60751.4
-215.933
-60672.9
-235.282
-60588
-254.371
-60496.9
-273.201
-60399.6
-291.771
-60296.2
-310.08
-60186.8
-328.13
-60071.4
-345.921
-59950.3
-363.452
-59823.4
-380.723
-59690.8
-397.737
-59552.7
-414.492
-59409
-430.99
-59260
-447.232
-59105.6
-463.217
-58946.1
-478.949
-58781.3
-494.426
-58611.5
-509.651
-58436.7
-524.625
-58257
-539.348
-58072.5
-553.823
-57883.3
-568.05
-57689.4
-582.031
-57491
-595.768
-57288
-609.263
-57080.7
-622.516
-56869
-635.53
-56653.1
-648.307
-56433
-660.847
-56208.8
-673.154
-55980.5
-685.23
-55748.4
-697.075
-55512.4
-708.692
-55272.6
-720.084
-55029.1
-731.252
-54781.9
-742.199
-54531.2
-752.926
-54277
-763.436
-54019.3
-773.731
-53758.3
-783.814
-53494.1
-793.687
-53226.6
-803.352
-52955.9
-812.811
-52682.2
-822.067
-52405.5
-831.122
-52125.8
-839.979
-51843.3
-848.641
-51557.9
-857.108
-51269.8
-865.385
-50979
-873.474
-50685.6
-881.376
-50389.6
-889.095
-50091.1
-896.633
-49790.2
-903.993
-49486.9
-911.177
-49181.2
-918.187
-48873.3
-925.027
-48563.1
-931.698
-48250.8
-938.204
-47936.4
-944.546
-47620
-950.727
-47301.5
-956.75
-46981.1
-962.618
-46658.8
-968.332
-46334.6
-973.896
-46008.7
-979.311
-45681
-984.58
-45351.6
-989.707
-45020.5
-994.692
-44687.8
-999.54
-44353.6
-1004.25
-44017.8
-1008.83
-43680.6
-1013.28
-43342
-1017.59
-43001.9
-1021.79
-42660.5
-1025.85
-42317.8
-1029.8
-41973.8
-1033.63
-41628.6
-1037.34
-41282.2
-1040.93
-40934.7
-1044.42
-40586
-1047.79
-40236.2
-1051.05
-39885.4
-1054.21
-39533.6
-1057.27
-39180.8
-1060.22
-38827.1
-1063.08
-38472.4
-1065.84
-38116.9
-1068.5
-37760.5
-1071.07
-37403.3
-1073.55
-37045.3
-1075.95
-36686.5
-1078.25
-36327
-1080.47
-35966.8
-1082.61
-35605.9
-1084.67
-35244.4
-1086.65
-34882.2
-1088.55
-34519.4
-1090.38
-34156.1
-1092.13
-33792.2
-1093.81
-33427.7
-1095.43
-33062.8
-1096.97
-32697.4
-1098.45
-32331.4
-1099.87
-31965.1
-1101.22
-31598.3
-1102.52
-31231.1
-1103.75
-30863.6
-1104.93
-30495.6
-1106.05
-30127.3
-1107.11
-29758.7
-1108.13
-29389.7
-1109.09
-29020.5
-1110.01
-28651
-1110.87
-28281.2
-1111.69
-27911.1
-1112.46
-27540.8
-1113.2
-27170.3
-1113.88
-26799.6
-1114.53
-26428.7
-1115.14
-26057.5
-1115.71
-25686.3
-1116.24
-25314.8
-1116.74
-24943.2
-1117.2
-24571.5
-1117.63
-24199.6
-1118.03
-23827.6
-1118.4
-23455.5
-1118.74
-23083.3
-1119.05
-22711
-1119.34
-22338.6
-1119.59
-21966.2
-1119.83
-21593.7
-1120.03
-21221.1
-1120.22
-20848.5
-1120.39
-20475.8
-1120.53
-20103.1
-1120.65
-19730.4
-1120.76
-19357.6
-1120.85
-18984.8
-1120.92
-18612
-1120.97
-18239.2
-1121.01
-17866.4
-1121.04
-17493.6
-1121.05
-17120.7
-1121.05
-16747.9
-1121.04
-16375.1
-1121.01
-16002.3
-1120.98
-15629.6
-1120.94
-15256.8
-1120.88
-14884.1
-1120.82
-14511.4
-1120.76
-14138.7
-1120.68
-13766.1
-1120.6
-13393.4
-1120.52
-13020.9
-1120.43
-12648.3
-1120.33
-12275.8
-1120.23
-11903.3
-1120.13
-11530.8
-1120.03
-11158.4
-1119.92
-10786.1
-1119.82
-10413.7
-1119.71
-10041.4
-1119.6
-9669.17
-1119.49
-9296.95
-1119.38
-8924.76
-1119.28
-8552.61
-1119.17
-8180.5
-1119.07
-7808.42
-1118.97
-7436.37
-1118.87
-7064.36
-1118.77
-6692.38
-1118.68
-6320.43
-1118.59
-5948.51
-1118.5
-5576.62
-1118.43
-5204.76
-1118.35
-4832.91
-1118.28
-4461.09
-1118.22
-4089.28
-1118.17
-3717.5
-1118.12
-3345.72
-1118.08
-2973.96
-1118.05
-2602.21
-1118.02
-2230.46
-1118
-1858.72
-1117.99
-1486.98
-1117.99
-1115.24
-1117.99
-743.494
-1117.99
-371.748
-1118
-1118.01
-1311.21
5434.6
-2594.36
5300.08
-3825.61
5046.62
-4990.21
4723.86
-6083.43
4385.64
-7109.31
4075.27
-8077.67
3819.21
-9000.84
3626.42
-9890.97
3493.02
-10758.5
3407.99
-11611.3
3358.19
-12455
3331.58
-13293.2
3318.65
-14127.8
3312.66
-14960
3309.28
-15790
3305.94
-16617.9
3301.29
-17443.4
3294.7
-18266.1
3286
-19085.7
3275.23
-19901.8
3262.51
-20714
3248.01
-21521.9
3231.91
-22325.3
3214.36
-23123.9
3195.49
-23917.3
3175.42
-24705.4
3154.25
-25487.8
3132.05
-26264.4
3108.91
-27035
3084.88
-27799.3
3060.01
-28557.1
3034.37
-29308.3
3007.98
-30052.7
2980.89
-30790.2
2953.14
-31520.5
2924.74
-32243.6
2895.73
-32959.3
2866.15
-33667.4
2836.01
-34367.8
2805.33
-35060.5
2774.14
-35745.2
2742.47
-36421.8
2710.32
-37090.3
2677.73
-37750.6
2644.71
-38402.5
2611.27
-39045.9
2577.44
-39680.8
2543.24
-40307
2508.68
-40924.5
2473.77
-41533.3
2438.54
-42133.1
2403
-42723.9
2367.17
-43305.8
2331.06
-43878.5
2294.68
-44442.1
2258.06
-44996.5
2221.21
-45541.6
2184.14
-46077.4
2146.86
-46603.8
2109.4
-47120.9
2071.77
-47628.4
2033.98
-48126.6
1996.04
-48615.2
1957.97
-49094.2
1919.78
-49563.7
1881.48
-50023.6
1843.1
-50473.9
1804.64
-50914.5
1766.11
-51345.5
1727.53
-51766.9
1688.91
-52178.6
1650.27
-52580.7
1611.61
-52973.1
1572.95
-53355.8
1534.29
-53728.9
1495.66
-54092.4
1457.07
-54446.2
1418.51
-54790.4
1380.02
-55125
1341.58
-55450
1303.23
-55765.5
1264.97
-56071.4
1226.8
-56367.9
1188.74
-56654.8
1150.8
-56932.3
1112.99
-57200.4
1075.32
-57459.1
1037.79
-57708.5
1000.42
-57948.6
963.216
-58179.5
926.185
-58401.2
889.338
-58613.7
852.681
-58817.1
816.224
-59011.4
779.973
-59196.8
743.936
-59373.2
708.121
-59540.7
672.535
-59699.4
637.185
-59849.3
602.077
-59990.5
567.219
-60123.1
532.615
-60247.1
498.273
-60362.6
464.198
-60469.7
430.395
-60568.4
396.871
-60658.8
363.63
-60741
330.677
-60815
298.016
-60880.9
265.654
-60938.9
233.592
-60988.9
201.837
-61031
170.391
-61065.4
139.259
-61092.1
108.443
-61111.2
77.9468
-61122.8
47.7739
-61126.9
17.9268
-61123.6
-11.5917
-61113.1
-40.7793
-61095.4
-69.6337
-61070.5
-98.1528
-61038.6
-126.335
-60999.8
-154.178
-60954.1
-181.68
-60901.6
-208.841
-60842.4
-235.659
-60776.7
-262.133
-60704.4
-288.262
-60625.7
-314.046
-60540.6
-339.483
-60449.3
-364.575
-60351.8
-389.32
-60248.2
-413.718
-60138.6
-437.77
-60023.1
-461.475
-59901.8
-484.835
-59774.7
-507.849
-59642
-530.519
-59503.7
-552.844
-59359.9
-574.827
-59210.8
-596.468
-59056.3
-617.768
-58896.6
-638.728
-58731.7
-659.35
-58561.8
-679.636
-58386.9
-699.586
-58207.2
-719.203
-58022.6
-738.489
-57833.3
-757.444
-57639.3
-776.072
-57440.8
-794.374
-57237.8
-812.353
-57030.4
-830.01
-56818.7
-847.349
-56602.8
-864.37
-56382.7
-881.078
-56158.4
-897.474
-55930.2
-913.561
-55698.1
-929.341
-55462.1
-944.818
-55222.3
-959.994
-54978.8
-974.872
-54731.7
-989.455
-54481
-1003.75
-54226.8
-1017.75
-53969.2
-1031.46
-53708.3
-1044.89
-53444.1
-1058.04
-53176.6
-1070.92
-52906.1
-1083.52
-52632.5
-1095.85
-52355.8
-1107.91
-52076.3
-1119.71
-51793.8
-1131.25
-51508.6
-1142.52
-51220.6
-1153.55
-50929.9
-1164.32
-50636.6
-1174.85
-50340.7
-1185.13
-50042.4
-1195.17
-49741.6
-1204.97
-49438.4
-1214.54
-49132.9
-1223.88
-48825.1
-1232.99
-48515.2
-1241.87
-48203
-1250.54
-47888.8
-1258.98
-47572.5
-1267.22
-47254.2
-1275.24
-46934
-1283.05
-46611.9
-1290.66
-46287.9
-1298.07
-45962.2
-1305.28
-45634.7
-1312.3
-45305.5
-1319.13
-44974.7
-1325.76
-44642.2
-1332.22
-44308.2
-1338.49
-43972.7
-1344.59
-43635.7
-1350.51
-43297.3
-1356.26
-42957.5
-1361.84
-42616.4
-1367.26
-42273.9
-1372.51
-41930.2
-1377.61
-41585.2
-1382.55
-41239.1
-1387.33
-40891.8
-1391.97
-40543.4
-1396.46
-40193.9
-1400.81
-39843.4
-1405.01
-39491.9
-1409.08
-39139.4
-1413.02
-38785.9
-1416.82
-38431.6
-1420.49
-38076.3
-1424.04
-37720.3
-1427.46
-37363.4
-1430.76
-37005.7
-1433.94
-36647.2
-1437.01
-36288
-1439.97
-35928.2
-1442.81
-35567.6
-1445.55
-35206.4
-1448.19
-34844.5
-1450.72
-34482.1
-1453.15
-34119.1
-1455.48
-33755.5
-1457.72
-33391.4
-1459.87
-33026.8
-1461.93
-32661.7
-1463.89
-32296.1
-1465.78
-31930.1
-1467.58
-31563.7
-1469.3
-31196.9
-1470.94
-30829.6
-1472.5
-30462.1
-1474
-30094.1
-1475.41
-29725.9
-1476.76
-29357.3
-1478.04
-28988.4
-1479.26
-28619.2
-1480.41
-28249.8
-1481.5
-27880.1
-1482.53
-27510.2
-1483.5
-27140.1
-1484.41
-26769.7
-1485.27
-26399.2
-1486.08
-26028.4
-1486.84
-25657.5
-1487.55
-25286.5
-1488.21
-24915.3
-1488.82
-24543.9
-1489.39
-24172.4
-1489.92
-23800.8
-1490.41
-23429.1
-1490.86
-23057.3
-1491.27
-22685.4
-1491.65
-22313.4
-1491.99
-21941.4
-1492.3
-21569.3
-1492.58
-21197.1
-1492.82
-20824.9
-1493.04
-20452.6
-1493.23
-20080.3
-1493.39
-19708
-1493.53
-19335.6
-1493.65
-18963.2
-1493.74
-18590.8
-1493.81
-18218.4
-1493.86
-17846
-1493.89
-17473.6
-1493.91
-17101.2
-1493.91
-16728.8
-1493.89
-16356.4
-1493.85
-15984.1
-1493.81
-15611.7
-1493.75
-15239.4
-1493.68
-14867
-1493.6
-14494.8
-1493.51
-14122.5
-1493.41
-13750.3
-1493.3
-13378.1
-1493.18
-13005.9
-1493.06
-12633.8
-1492.94
-12261.7
-1492.8
-11889.6
-1492.67
-11517.6
-1492.53
-11145.6
-1492.39
-10773.6
-1492.24
-10401.7
-1492.1
-10029.9
-1491.95
-9658.02
-1491.81
-9286.23
-1491.66
-8914.47
-1491.52
-8542.74
-1491.38
-8171.06
-1491.24
-7799.4
-1491.1
-7427.79
-1490.97
-7056.2
-1490.84
-6684.65
-1490.72
-6313.13
-1490.6
-5941.64
-1490.49
-5570.18
-1490.38
-5198.74
-1490.28
-4827.32
-1490.19
-4455.93
-1490.11
-4084.56
-1490.03
-3713.2
-1489.97
-3341.85
-1489.92
-2970.52
-1489.87
-2599.2
-1489.84
-2227.88
-1489.81
-1856.57
-1489.8
-1485.26
-1489.79
-1113.95
-1489.8
-742.637
-1489.8
-371.321
-1489.81
-1489.83
-1279.58
6714.31
-2534.66
6555.3
-3745.06
6257.17
-4897.75
5876.71
-5987.75
5475.8
-7017.48
5105.17
-7994.45
4796.35
-8928.72
4560.87
-9830.63
4395.12
-10709.3
4286.89
-11572.1
4221.16
-12424.3
4183.92
-13269.3
4163.91
-14109.5
4153.05
-14946
4146.02
-15779.5
4139.6
-16610.1
4132.02
-17437.6
4122.44
-18261.9
4110.51
-19082.7
4096.24
-19899.7
4079.71
-20712.6
4061.1
-21521.1
4040.59
-22324.9
4018.34
-23123.7
3994.5
-23917.3
3969.2
-24705.5
3942.56
-25487.9
3914.68
-26264.5
3885.63
-27034.9
3855.5
-27799.1
3824.33
-28556.7
3792.21
-29307.7
3759.16
-30051.9
3725.24
-30789.1
3690.5
-31519.2
3654.96
-32242
3618.67
-32957.3
3581.65
-33665.1
3543.95
-34365.2
3505.58
-35057.5
3466.57
-35741.8
3426.95
-36418.1
3386.76
-37086.2
3346
-37746.1
3304.7
-38397.6
3262.9
-39040.6
3220.6
-39675
3177.83
-40300.8
3134.62
-40917.9
3090.98
-41526.2
3046.93
-42125.5
3002.5
-42716
2957.7
-43297.3
2912.56
-43869.6
2867.08
-44432.7
2821.3
-44986.6
2775.23
-45531.3
2728.89
-46066.6
2682.3
-46592.6
2635.47
-47109.1
2588.42
-47616.2
2541.18
-48113.8
2493.76
-48601.9
2446.17
-49080.5
2398.43
-49549.5
2350.57
-50008.9
2302.59
-50458.7
2254.51
-50898.8
2206.35
-51329.3
2158.13
-51750.2
2109.86
-52161.4
2061.56
-52563
2013.24
-52954.9
1964.92
-53337.1
1916.61
-53709.7
1868.33
-54072.6
1820.08
-54426
1771.9
-54769.7
1723.78
-55103.8
1675.75
-55428.3
1627.82
-55743.3
1579.99
-56048.7
1532.29
-56344.6
1484.73
-56631.1
1437.31
-56908.1
1390.05
-57175.7
1342.97
-57433.9
1296.07
-57682.9
1249.37
-57922.5
1202.88
-58152.8
1156.6
-58374
1110.55
-58586
1064.74
-58789
1019.18
-58982.8
973.88
-59167.7
928.846
-59343.7
884.09
-59510.7
839.62
-59669
795.446
-59818.4
751.574
-59959.2
708.014
-60091.4
664.774
-60214.9
621.86
-60330
579.28
-60436.6
537.042
-60534.9
495.151
-60624.9
453.615
-60706.6
412.439
-60780.2
371.629
-60845.8
331.191
-60903.3
291.13
-60952.9
251.452
-60994.7
212.161
-61028.7
173.262
-61055
134.759
-61073.8
96.6554
-61085
58.9561
-61088.7
21.6644
-61085.1
-15.2166
-61074.2
-51.6838
-61056.1
-87.7343
-61031
-123.366
-60998.7
-158.575
-60959.6
-193.361
-60913.6
-227.722
-60860.8
-261.655
-60801.3
-295.159
-60735.3
-328.233
-60662.7
-360.876
-60583.7
-393.088
-60498.4
-424.866
-60406.8
-456.212
-60309
-487.125
-60205.2
-517.604
-60095.3
-547.65
-59979.6
-577.264
-59858.1
-606.445
-59730.8
-635.194
-59597.8
-663.513
-59459.3
-691.401
-59315.4
-718.861
-59166
-745.894
-59011.4
-772.5
-58851.5
-798.682
-58686.5
-824.442
-58516.4
-849.78
-58341.4
-874.7
-58161.5
-899.203
-57976.7
-923.291
-57787.3
-946.968
-57593.2
-970.234
-57394.6
-993.094
-57191.5
-1015.55
-56984
-1037.6
-56772.2
-1059.26
-56556.2
-1080.52
-56336
-1101.39
-56111.7
-1121.86
-55883.4
-1141.95
-55651.2
-1161.66
-55415.2
-1180.99
-55175.4
-1199.94
-54931.8
-1218.52
-54684.7
-1236.74
-54434
-1254.58
-54179.8
-1272.07
-53922.2
-1289.19
-53661.3
-1305.97
-53397.1
-1322.39
-53129.6
-1338.47
-52859.1
-1354.2
-52585.5
-1369.6
-52308.9
-1384.66
-52029.4
-1399.39
-51747
-1413.8
-51461.8
-1427.88
-51173.9
-1441.65
-50883.3
-1455.1
-50590.1
-1468.24
-50294.3
-1481.08
-49996
-1493.62
-49695.3
-1505.86
-49392.2
-1517.8
-49086.8
-1529.46
-48779.2
-1540.83
-48469.3
-1551.93
-48157.3
-1562.74
-47843.2
-1573.29
-47527.1
-1583.57
-47209
-1593.58
-46888.9
-1603.34
-46566.9
-1612.84
-46243.1
-1622.08
-45917.5
-1631.09
-45590.2
-1639.85
-45261.2
-1648.37
-44930.6
-1656.66
-44598.3
-1664.71
-44264.5
-1672.54
-43929.2
-1680.15
-43592.4
-1687.54
-43254.2
-1694.72
-42914.6
-1701.68
-42573.7
-1708.44
-42231.4
-1715
-41887.9
-1721.36
-41543.2
-1727.53
-41197.3
-1733.5
-40850.3
-1739.29
-40502.1
-1744.89
-40152.9
-1750.31
-39802.6
-1755.56
-39451.3
-1760.64
-39099.1
-1765.55
-38745.9
-1770.29
-38391.8
-1774.87
-38036.9
-1779.3
-37681.1
-1783.57
-37324.4
-1787.69
-36967
-1791.66
-36608.9
-1795.49
-36250
-1799.17
-35890.4
-1802.72
-35530.1
-1806.14
-35169.2
-1809.42
-34807.7
-1812.58
-34445.5
-1815.61
-34082.8
-1818.52
-33719.6
-1821.32
-33355.8
-1823.99
-32991.5
-1826.56
-32626.7
-1829.01
-32261.5
-1831.36
-31895.8
-1833.6
-31529.7
-1835.75
-31163.2
-1837.79
-30796.4
-1839.75
-30429.1
-1841.6
-30061.5
-1843.37
-29693.6
-1845.05
-29325.4
-1846.65
-28956.8
-1848.16
-28588
-1849.59
-28219
-1850.95
-27849.6
-1852.23
-27480.1
-1853.44
-27110.3
-1854.58
-26740.3
-1855.65
-26370.1
-1856.66
-25999.8
-1857.6
-25629.2
-1858.48
-25258.5
-1859.3
-24887.7
-1860.07
-24516.7
-1860.78
-24145.6
-1861.44
-23774.4
-1862.04
-23403.1
-1862.6
-23031.6
-1863.11
-22660.1
-1863.58
-22288.5
-1864
-21916.9
-1864.38
-21545.2
-1864.73
-21173.4
-1865.03
-20801.5
-1865.3
-20429.7
-1865.54
-20057.8
-1865.74
-19685.8
-1865.91
-19313.9
-1866.05
-18941.9
-1866.16
-18569.9
-1866.25
-18197.9
-1866.31
-17825.9
-1866.35
-17453.9
-1866.36
-17081.9
-1866.36
-16709.9
-1866.33
-16337.9
-1866.29
-15965.9
-1866.23
-15594
-1866.16
-15222
-1866.07
-14850.1
-1865.96
-14478.3
-1865.85
-14106.4
-1865.72
-13734.6
-1865.58
-13362.8
-1865.44
-12991.1
-1865.28
-12619.3
-1865.12
-12247.7
-1864.96
-11876
-1864.79
-11504.4
-1864.61
-11132.8
-1864.43
-10761.3
-1864.25
-10389.8
-1864.07
-10018.4
-1863.89
-9646.95
-1863.7
-9275.58
-1863.52
-8904.24
-1863.34
-8532.94
-1863.16
-8161.67
-1862.99
-7790.45
-1862.82
-7419.25
-1862.65
-7048.09
-1862.49
-6676.97
-1862.33
-6305.87
-1862.18
-5934.8
-1862.04
-5563.77
-1861.91
-5192.75
-1861.79
-4821.77
-1861.67
-4450.8
-1861.57
-4079.85
-1861.47
-3708.92
-1861.39
-3338.01
-1861.33
-2967.1
-1861.27
-2596.21
-1861.23
-2225.32
-1861.2
-1854.43
-1861.18
-1483.55
-1861.17
-1112.67
-1861.17
-741.78
-1861.18
-370.891
-1861.2
-1861.21
-1248.78
7963.22
-2476.54
7783.19
-3666.38
7447.15
-4806.88
7017.36
-5892.96
6562.05
-6925.67
6138.04
-7910.46
5781.32
-8855.29
5505.89
-9768.74
5308.76
-10658.7
5177.06
-11531.7
5094.38
-12392.8
5045.14
-13245.3
5016.63
-14091.6
4999.56
-14933.1
4987.71
-15770.5
4977.24
-16604.2
4965.94
-17434.3
4952.71
-18260.7
4937.06
-19083.1
4918.87
-19901.4
4898.21
-20715.4
4875.23
-21524.7
4850.09
-22329.1
4822.97
-23128.5
4794.02
-23922.5
4763.39
-24710.9
4731.19
-25493.6
4697.53
-26270.3
4662.51
-27040.9
4626.21
-27805
4588.7
-28562.7
4550.04
-29313.7
4510.3
-30057.8
4469.52
-30794.9
4427.75
-31524.8
4385.05
-32247.4
4341.45
-32962.6
4296.98
-33670.2
4251.69
-34370
4205.6
-35062.1
4158.76
-35746.2
4111.19
-36422.2
4062.92
-37090
4013.98
-37749.6
3964.4
-38400.8
3914.21
-39043.5
3863.43
-39677.6
3812.09
-40303
3760.22
-40919.8
3707.83
-41527.7
3654.96
-42126.7
3601.63
-42716.7
3547.85
-43297.7
3493.67
-43869.6
3439.09
-44432.3
3384.14
-44985.8
3328.84
-45530
3273.22
-46064.9
3217.3
-46590.4
3161.1
-47106.5
3104.64
-47613.2
3047.94
-48110.4
2991.02
-48598
2933.91
-49076.1
2876.62
-49544.6
2819.18
-50003.5
2761.6
-50452.8
2703.91
-50892.5
2646.12
-51322.6
2588.25
-51742.9
2530.32
-52153.6
2472.36
-52554.7
2414.38
-52946.1
2356.39
-53327.8
2298.42
-53699.9
2240.48
-54062.3
2182.59
-54415.2
2124.77
-54758.3
2067.03
-55091.9
2009.4
-55415.9
1951.88
-55730.4
1894.5