/*--------------------------------*- C++ -*----------------------------------*\
| =========                 |                                                 |
| \\      /  F ield         | OpenFOAM: The Open Source CFD Toolbox           |
|  \\    /   O peration     | Version:  2212                                  |
|   \\  /    A nd           | Website:  www.openfoam.com                      |
|    \\/     M anipulation  |                                                 |
\*---------------------------------------------------------------------------*/
FoamFile
{
    version     2.0;
    format      ascii;
    arch        "LSB;label=32;scalar=64";
    class       volScalarField;
    location    "230";
    object      p_rgh_0;
}
// * * * * * * * * * * * * * * * * * * * * * * * * * * * * * * * * * * * * * //

dimensions      [1 -1 -2 0 0 0 0];

internalField   nonuniform List<scalar> 
204800
(
3.8253
3.82384
3.8225
3.82032
3.81778
3.81458
3.81089
3.80663
3.80186
3.79658
3.79083
3.78464
3.77807
3.77117
3.76401
3.75668
3.74926
3.74187
3.73461
3.72761
3.72099
3.7149
3.70948
3.70487
3.70122
3.69869
3.69743
3.69758
3.69929
3.70271
3.70798
3.71523
3.7246
3.7362
3.75016
3.76659
3.7856
3.80728
3.83174
3.85905
3.88931
3.92258
3.95893
3.99844
4.04116
4.08713
4.13641
4.18904
4.24505
4.30447
4.36733
4.43365
4.50344
4.57672
4.65348
4.73373
4.81747
4.90468
4.99535
5.08947
5.18701
5.28796
5.39227
5.49992
5.61087
5.72508
5.84251
5.96311
6.08684
6.21363
6.34345
6.47623
6.61191
6.75043
6.89172
7.03573
7.18239
7.33163
7.48338
7.63756
7.79411
7.95295
8.11402
8.27723
8.44251
8.60978
8.77898
8.95001
9.12282
9.29732
9.47343
9.65108
9.8302
10.0107
10.1925
10.3756
10.5598
10.7451
10.9315
11.1188
11.3069
11.4959
11.6857
11.8761
12.0671
12.2587
12.4507
12.6432
12.836
13.0291
13.2225
13.416
13.6097
13.8034
13.9972
14.1909
14.3845
14.578
14.7713
14.9644
15.1572
15.3497
15.5418
15.7335
15.9247
16.1155
16.3058
16.4955
16.6846
16.8731
17.0609
17.248
17.4344
17.6201
17.805
17.9891
18.1723
18.3547
18.5362
18.7168
18.8965
19.0753
19.2531
19.4299
19.6057
19.7805
19.9542
20.127
20.2986
20.4692
20.6387
20.8071
20.9744
21.1405
21.3056
21.4694
21.6322
21.7938
21.9542
22.1134
22.2715
22.4284
22.5841
22.7386
22.8919
23.044
23.1949
23.3446
23.4931
23.6404
23.7865
23.9313
24.0749
24.2174
24.3586
24.4986
24.6373
24.7749
24.9112
25.0463
25.1802
25.3129
25.4444
25.5747
25.7038
25.8317
25.9583
26.0838
26.2081
26.3312
26.4531
26.5738
26.6933
26.8116
26.9288
27.0448
27.1597
27.2733
27.3858
27.4972
27.6074
27.7164
27.8243
27.9311
28.0368
28.1413
28.2446
28.3469
28.448
28.5481
28.647
28.7448
28.8415
28.9372
29.0317
29.1252
29.2175
29.3088
29.3991
29.4882
29.5764
29.6634
29.7494
29.8344
29.9183
30.0011
30.083
30.1638
30.2436
30.3224
30.4001
30.4769
30.5526
30.6274
30.7011
30.7739
30.8456
30.9164
30.9862
31.0551
31.1229
31.1898
31.2558
31.3207
31.3848
31.4478
31.51
31.5712
31.6314
31.6907
31.7491
31.8066
31.8631
31.9187
31.9734
32.0272
32.0801
32.1321
32.1832
32.2334
32.2827
32.3311
32.3786
32.4253
32.471
32.5159
32.5599
32.6031
32.6453
32.6867
32.7273
32.767
32.8058
32.8438
32.8809
32.9172
32.9526
32.9872
33.021
33.0539
33.086
33.1172
33.1477
33.1773
33.206
33.234
33.2611
33.2874
33.3129
33.3375
33.3614
33.3844
33.4067
33.4281
33.4487
33.4685
33.4875
33.5057
33.5231
33.5397
33.5555
33.5705
33.5847
33.5981
33.6108
33.6226
33.6336
33.6439
33.6533
33.662
33.6698
33.6769
33.6832
33.6887
33.6935
33.6974
33.7005
33.7029
33.7045
33.7052
3.85566
3.85441
3.85249
3.84949
3.84574
3.84106
3.83562
3.82937
3.82242
3.81482
3.80665
3.79799
3.78893
3.77957
3.77002
3.76039
3.75079
3.74136
3.73222
3.7235
3.71534
3.70789
3.70128
3.69565
3.69114
3.68789
3.68603
3.68571
3.68705
3.69018
3.69523
3.70233
3.71159
3.72312
3.73704
3.75345
3.77245
3.79414
3.81861
3.84594
3.87621
3.90949
3.94586
3.98537
4.02808
4.07405
4.12331
4.17592
4.2319
4.29128
4.3541
4.42037
4.4901
4.56331
4.63999
4.72016
4.80381
4.89092
4.98149
5.0755
5.17293
5.27374
5.37792
5.48543
5.59624
5.7103
5.82757
5.948
6.07156
6.19818
6.32781
6.46039
6.59587
6.73419
6.87528
7.01908
7.16552
7.31453
7.46604
7.61999
7.7763
7.9349
8.09571
8.25866
8.42368
8.59069
8.75962
8.93038
9.10291
9.27713
9.45295
9.63032
9.80914
9.98935
10.1709
10.3536
10.5375
10.7226
10.9086
11.0956
11.2834
11.4721
11.6615
11.8516
12.0423
12.2335
12.4252
12.6174
12.8099
13.0026
13.1957
13.3889
13.5822
13.7756
13.969
14.1624
14.3557
14.5488
14.7418
14.9345
15.127
15.3191
15.5109
15.7023
15.8932
16.0836
16.2735
16.4629
16.6517
16.8398
17.0273
17.2141
17.4001
17.5855
17.77
17.9537
18.1367
18.3187
18.4999
18.6802
18.8595
19.038
19.2154
19.3919
19.5674
19.7418
19.9153
20.0877
20.259
20.4293
20.5984
20.7665
20.9335
21.0993
21.264
21.4276
21.59
21.7513
21.9114
22.0704
22.2282
22.3847
22.5401
22.6944
22.8474
22.9992
23.1498
23.2992
23.4474
23.5944
23.7402
23.8848
24.0281
24.1703
24.3112
24.4509
24.5894
24.7267
24.8628
24.9976
25.1313
25.2637
25.3949
25.525
25.6538
25.7814
25.9078
26.0331
26.1571
26.2799
26.4016
26.5221
26.6414
26.7595
26.8764
26.9922
27.1068
27.2202
27.3325
27.4437
27.5536
27.6625
27.7702
27.8767
27.9822
28.0865
28.1896
28.2917
28.3926
28.4925
28.5912
28.6888
28.7854
28.8808
28.9751
29.0684
29.1606
29.2517
29.3418
29.4308
29.5187
29.6056
29.6914
29.7762
29.8599
29.9426
30.0243
30.105
30.1846
30.2632
30.3408
30.4174
30.493
30.5676
30.6412
30.7138
30.7854
30.8561
30.9258
30.9945
31.0622
31.1289
31.1947
31.2596
31.3235
31.3864
31.4484
31.5095
31.5696
31.6288
31.6871
31.7444
31.8009
31.8564
31.911
31.9647
32.0175
32.0693
32.1203
32.1704
32.2196
32.2679
32.3153
32.3619
32.4076
32.4524
32.4963
32.5393
32.5815
32.6228
32.6633
32.7029
32.7417
32.7796
32.8166
32.8528
32.8882
32.9227
32.9564
32.9893
33.0213
33.0525
33.0828
33.1124
33.1411
33.1689
33.196
33.2223
33.2477
33.2723
33.2961
33.3191
33.3413
33.3627
33.3832
33.403
33.422
33.4401
33.4575
33.4741
33.4899
33.5048
33.519
33.5324
33.545
33.5568
33.5678
33.578
33.5874
33.5961
33.6039
33.611
33.6173
33.6228
33.6275
33.6314
33.6346
33.6369
33.6385
33.6393
3.83692
3.83574
3.83382
3.83086
3.82713
3.82248
3.81706
3.81085
3.80395
3.7964
3.7883
3.77972
3.77074
3.76149
3.75205
3.74255
3.73309
3.72382
3.71484
3.70631
3.69835
3.6911
3.6847
3.67928
3.675
3.67197
3.67035
3.67026
3.67183
3.67519
3.68048
3.6878
3.69728
3.70904
3.72317
3.73979
3.759
3.7809
3.80556
3.83308
3.86354
3.897
3.93355
3.97323
4.01611
4.06224
4.11167
4.16443
4.22056
4.2801
4.34306
4.40947
4.47935
4.5527
4.62952
4.70982
4.7936
4.88084
4.97154
5.06567
5.16322
5.26416
5.36845
5.47608
5.587
5.70117
5.81855
5.93909
6.06275
6.18947
6.31921
6.45189
6.58747
6.72589
6.86707
7.01096
7.15749
7.30659
7.4582
7.61223
7.76862
7.9273
8.08819
8.25122
8.41632
8.5834
8.7524
8.92324
9.09583
9.27011
9.446
9.62343
9.80231
9.98258
10.1642
10.347
10.5309
10.716
10.9021
11.0891
11.277
11.4657
11.6552
11.8453
12.036
12.2273
12.419
12.6112
12.8037
12.9965
13.1896
13.3828
13.5761
13.7695
13.963
14.1563
14.3496
14.5428
14.7358
14.9285
15.121
15.3131
15.5049
15.6963
15.8872
16.0776
16.2675
16.4569
16.6456
16.8338
17.0212
17.208
17.3941
17.5794
17.7639
17.9476
18.1305
18.3126
18.4937
18.674
18.8533
19.0317
19.2091
19.3856
19.561
19.7355
19.9089
20.0812
20.2525
20.4228
20.5919
20.7599
20.9269
21.0927
21.2574
21.4209
21.5833
21.7445
21.9046
22.0635
22.2213
22.3778
22.5332
22.6873
22.8403
22.9921
23.1427
23.292
23.4402
23.5871
23.7329
23.8774
24.0207
24.1628
24.3037
24.4434
24.5818
24.7191
24.8551
24.9899
25.1235
25.2559
25.3871
25.5171
25.6459
25.7734
25.8998
26.025
26.149
26.2718
26.3934
26.5138
26.6331
26.7511
26.868
26.9838
27.0983
27.2117
27.324
27.4351
27.545
27.6538
27.7615
27.868
27.9734
28.0776
28.1808
28.2828
28.3837
28.4835
28.5821
28.6797
28.7762
28.8716
28.9659
29.0592
29.1513
29.2424
29.3324
29.4214
29.5093
29.5961
29.6819
29.7666
29.8503
29.933
30.0147
30.0953
30.1749
30.2535
30.331
30.4076
30.4832
30.5577
30.6313
30.7039
30.7755
30.8461
30.9157
30.9844
31.0521
31.1188
31.1846
31.2494
31.3132
31.3762
31.4381
31.4992
31.5593
31.6184
31.6767
31.734
31.7904
31.8459
31.9005
31.9541
32.0069
32.0588
32.1097
32.1598
32.209
32.2572
32.3047
32.3512
32.3968
32.4416
32.4855
32.5285
32.5707
32.612
32.6524
32.692
32.7308
32.7687
32.8057
32.8419
32.8772
32.9117
32.9454
32.9782
33.0102
33.0414
33.0718
33.1013
33.13
33.1579
33.1849
33.2111
33.2366
33.2612
33.285
33.3079
33.3301
33.3515
33.372
33.3918
33.4108
33.4289
33.4463
33.4628
33.4786
33.4936
33.5077
33.5211
33.5337
33.5455
33.5565
33.5667
33.5762
33.5848
33.5926
33.5997
33.606
33.6115
33.6162
33.6201
33.6232
33.6256
33.6272
33.628
3.8359
3.83467
3.8324
3.82896
3.82451
3.819
3.81255
3.8052
3.79704
3.78816
3.77866
3.76865
3.75826
3.74759
3.73679
3.72597
3.71528
3.70486
3.69484
3.68537
3.67657
3.66861
3.6616
3.65569
3.65101
3.64768
3.64584
3.64562
3.64713
3.65049
3.65582
3.66323
3.67284
3.68474
3.69905
3.71587
3.73528
3.75738
3.78225
3.80998
3.84065
3.87432
3.91106
3.95093
3.994
4.04031
4.08991
4.14283
4.19912
4.2588
4.32191
4.38845
4.45844
4.5319
4.60883
4.68924
4.77311
4.86043
4.95121
5.04541
5.14302
5.24401
5.34836
5.45603
5.56699
5.68119
5.79859
5.91915
6.04282
6.16955
6.29928
6.43196
6.56753
6.70593
6.84709
6.99095
7.13744
7.2865
7.43806
7.59204
7.74838
7.90699
8.06782
8.23077
8.39579
8.56279
8.7317
8.90244
9.07494
9.24912
9.4249
9.60221
9.78098
9.96112
10.1426
10.3253
10.5091
10.694
10.8799
11.0668
11.2546
11.4431
11.6324
11.8224
12.0129
12.204
12.3956
12.5876
12.7799
12.9726
13.1654
13.3585
13.5516
13.7448
13.9381
14.1312
14.3243
14.5173
14.7101
14.9026
15.0948
15.2868
15.4783
15.6695
15.8602
16.0504
16.2401
16.4292
16.6177
16.8056
16.9929
17.1794
17.3652
17.5503
17.7346
17.9181
18.1008
18.2826
18.4635
18.6435
18.8226
19.0008
19.1779
19.3542
19.5294
19.7036
19.8767
20.0489
20.2199
20.3899
20.5588
20.7266
20.8933
21.0589
21.2233
21.3866
21.5488
21.7098
21.8696
22.0283
22.1858
22.3421
22.4972
22.6512
22.8039
22.9555
23.1058
23.2549
23.4029
23.5496
23.6951
23.8394
23.9825
24.1244
24.265
24.4045
24.5427
24.6797
24.8155
24.9501
25.0835
25.2157
25.3467
25.4765
25.605
25.7324
25.8586
25.9835
26.1073
26.2299
26.3513
26.4716
26.5906
26.7085
26.8252
26.9407
27.0551
27.1683
27.2804
27.3913
27.501
27.6096
27.7171
27.8234
27.9286
28.0327
28.1357
28.2375
28.3382
28.4379
28.5364
28.6338
28.7301
28.8254
28.9195
29.0126
29.1046
29.1955
29.2853
29.3741
29.4619
29.5486
29.6342
29.7188
29.8024
29.8849
29.9664
30.0469
30.1263
30.2048
30.2822
30.3586
30.434
30.5085
30.5819
30.6544
30.7258
30.7963
30.8658
30.9344
31.0019
31.0685
31.1342
31.1989
31.2627
31.3255
31.3873
31.4483
31.5082
31.5673
31.6254
31.6827
31.739
31.7943
31.8488
31.9024
31.9551
32.0068
32.0577
32.1077
32.1567
32.2049
32.2523
32.2987
32.3443
32.389
32.4328
32.4757
32.5178
32.559
32.5994
32.6389
32.6776
32.7154
32.7524
32.7885
32.8238
32.8582
32.8919
32.9246
32.9566
32.9877
33.018
33.0474
33.0761
33.1039
33.1309
33.1571
33.1825
33.207
33.2308
33.2537
33.2758
33.2972
33.3177
33.3374
33.3563
33.3745
33.3918
33.4083
33.4241
33.439
33.4531
33.4665
33.4791
33.4908
33.5018
33.512
33.5214
33.5301
33.5379
33.5449
33.5512
33.5567
33.5614
33.5653
33.5684
33.5708
33.5724
33.5731
3.8005
3.79931
3.79707
3.79369
3.78931
3.78389
3.77755
3.77031
3.76229
3.75356
3.74423
3.73441
3.72421
3.71376
3.70317
3.6926
3.68216
3.672
3.66225
3.65306
3.64457
3.63691
3.63022
3.62464
3.62029
3.61732
3.61584
3.61597
3.61785
3.62159
3.6273
3.6351
3.64509
3.65739
3.67209
3.68928
3.70908
3.73155
3.7568
3.7849
3.81593
3.84996
3.88705
3.92727
3.97068
4.01732
4.06724
4.12048
4.17708
4.23707
4.30048
4.36731
4.4376
4.51135
4.58856
4.66924
4.75338
4.84097
4.93201
5.02647
5.12434
5.22558
5.33018
5.43809
5.54929
5.66373
5.78137
5.90216
6.02606
6.15302
6.28297
6.41587
6.55165
6.69026
6.83163
6.97569
7.12239
7.27165
7.4234
7.57757
7.7341
7.8929
8.0539
8.21704
8.38223
8.5494
8.71848
8.88938
9.06204
9.23637
9.4123
9.58976
9.76867
9.94896
10.1305
10.3134
10.4973
10.6824
10.8684
11.0554
11.2433
11.4319
11.6213
11.8114
12.002
12.1932
12.3849
12.577
12.7694
12.9621
13.155
13.3481
13.5413
13.7346
13.9279
14.1211
14.3143
14.5073
14.7001
14.8927
15.0849
15.2769
15.4685
15.6597
15.8504
16.0406
16.2303
16.4194
16.608
16.7959
16.9831
17.1697
17.3555
17.5406
17.7249
17.9083
18.091
18.2728
18.4537
18.6337
18.8128
18.9909
19.168
19.3442
19.5194
19.6936
19.8667
20.0388
20.2098
20.3798
20.5486
20.7164
20.883
21.0485
21.2129
21.3762
21.5383
21.6993
21.859
22.0177
22.1751
22.3314
22.4864
22.6403
22.793
22.9445
23.0948
23.2438
23.3917
23.5384
23.6838
23.828
23.9711
24.1129
24.2535
24.3928
24.531
24.668
24.8037
24.9382
25.0716
25.2037
25.3346
25.4643
25.5928
25.7201
25.8462
25.9711
26.0948
26.2173
26.3387
26.4588
26.5778
26.6956
26.8122
26.9277
27.042
27.1551
27.2671
27.3779
27.4876
27.5962
27.7036
27.8098
27.915
28.019
28.1219
28.2236
28.3243
28.4239
28.5223
28.6197
28.7159
28.8111
28.9052
28.9982
29.0901
29.181
29.2708
29.3595
29.4472
29.5338
29.6194
29.7039
29.7874
29.8699
29.9513
30.0317
30.1111
30.1895
30.2669
30.3433
30.4186
30.493
30.5664
30.6388
30.7102
30.7806
30.8501
30.9186
30.9861
31.0526
31.1182
31.1829
31.2466
31.3093
31.3712
31.432
31.492
31.551
31.6091
31.6663
31.7225
31.7779
31.8323
31.8858
31.9384
31.9902
32.041
32.0909
32.14
32.1881
32.2354
32.2818
32.3274
32.372
32.4158
32.4587
32.5008
32.542
32.5823
32.6218
32.6604
32.6982
32.7351
32.7712
32.8065
32.8409
32.8745
32.9072
32.9392
32.9703
33.0005
33.03
33.0586
33.0864
33.1134
33.1395
33.1649
33.1894
33.2131
33.2361
33.2582
33.2795
33.3
33.3197
33.3386
33.3567
33.374
33.3905
33.4063
33.4212
33.4353
33.4487
33.4612
33.473
33.484
33.4942
33.5036
33.5122
33.52
33.5271
33.5333
33.5388
33.5435
33.5474
33.5505
33.5529
33.5544
33.5552
3.77553
3.77428
3.77184
3.76819
3.76341
3.75752
3.75061
3.74275
3.73405
3.7246
3.71451
3.70391
3.69294
3.68172
3.67039
3.65911
3.64801
3.63724
3.62694
3.61727
3.60836
3.60036
3.59341
3.58763
3.58316
3.58013
3.57867
3.57888
3.58088
3.5848
3.59073
3.59879
3.60908
3.6217
3.63674
3.6543
3.67446
3.69732
3.72296
3.75145
3.78286
3.81727
3.85475
3.89534
3.93911
3.98611
4.03639
4.08997
4.14691
4.20722
4.27094
4.33808
4.40867
4.4827
4.5602
4.64115
4.72556
4.81341
4.9047
4.99941
5.09751
5.19899
5.30381
5.41194
5.52334
5.63799
5.75582
5.87681
6.00089
6.12803
6.25815
6.39122
6.52716
6.66592
6.80744
6.95165
7.09848
7.24787
7.39975
7.55404
7.71067
7.86958
8.03069
8.19392
8.3592
8.52645
8.69561
8.86658
9.0393
9.2137
9.38969
9.56719
9.74614
9.92647
10.1081
10.2909
10.4749
10.66
10.846
11.033
11.2209
11.4095
11.5989
11.789
11.9796
12.1708
12.3624
12.5544
12.7468
12.9394
13.1323
13.3253
13.5185
13.7117
13.9049
14.0981
14.2911
14.4841
14.6768
14.8692
15.0614
15.2533
15.4448
15.6358
15.8264
16.0165
16.2061
16.3951
16.5835
16.7713
16.9584
17.1448
17.3305
17.5154
17.6996
17.8829
18.0654
18.247
18.4278
18.6076
18.7866
18.9645
19.1415
19.3175
19.4926
19.6666
19.8395
20.0114
20.1823
20.352
20.5207
20.6883
20.8548
21.0201
21.1843
21.3474
21.5093
21.6701
21.8297
21.9881
22.1454
22.3015
22.4563
22.61
22.7625
22.9138
23.0639
23.2128
23.3605
23.507
23.6522
23.7963
23.9391
24.0808
24.2212
24.3604
24.4983
24.6351
24.7707
24.905
25.0381
25.1701
25.3008
25.4303
25.5586
25.6858
25.8117
25.9364
26.0599
26.1823
26.3035
26.4234
26.5422
26.6599
26.7763
26.8916
27.0058
27.1187
27.2305
27.3412
27.4507
27.5591
27.6663
27.7724
27.8774
27.9813
28.084
28.1856
28.2861
28.3855
28.4838
28.581
28.6771
28.7721
28.8661
28.9589
29.0507
29.1414
29.2311
29.3197
29.4072
29.4937
29.5791
29.6635
29.7469
29.8292
29.9105
29.9908
30.0701
30.1483
30.2256
30.3018
30.3771
30.4513
30.5246
30.5969
30.6681
30.7385
30.8078
30.8762
30.9436
31.01
31.0755
31.1401
31.2037
31.2663
31.328
31.3888
31.4486
31.5076
31.5656
31.6226
31.6788
31.734
31.7884
31.8418
31.8943
31.946
31.9967
32.0466
32.0955
32.1436
32.1908
32.2371
32.2826
32.3272
32.3709
32.4137
32.4557
32.4968
32.5371
32.5765
32.6151
32.6528
32.6897
32.7257
32.7609
32.7953
32.8288
32.8615
32.8933
32.9244
32.9546
32.984
33.0125
33.0403
33.0672
33.0933
33.1186
33.1431
33.1668
33.1897
33.2118
33.2331
33.2535
33.2732
33.2921
33.3102
33.3274
33.3439
33.3596
33.3745
33.3886
33.4019
33.4145
33.4262
33.4372
33.4474
33.4567
33.4653
33.4732
33.4802
33.4864
33.4919
33.4966
33.5005
33.5036
33.506
33.5075
33.5083
3.72658
3.72536
3.72297
3.71939
3.71471
3.70894
3.70217
3.69447
3.68595
3.67669
3.66681
3.65644
3.64569
3.63472
3.62364
3.61261
3.60177
3.59127
3.58125
3.57187
3.56326
3.55557
3.54893
3.54349
3.53937
3.5367
3.53561
3.53622
3.53864
3.54299
3.54938
3.5579
3.56867
3.58177
3.59732
3.61538
3.63607
3.65944
3.6856
3.71461
3.74654
3.78147
3.81945
3.86056
3.90483
3.95232
4.00308
4.05714
4.11455
4.17532
4.2395
4.30709
4.37812
4.45259
4.53051
4.61189
4.69671
4.78498
4.87668
4.97178
5.07028
5.17215
5.27736
5.38587
5.49766
5.61267
5.73088
5.85222
5.97667
6.10416
6.23463
6.36804
6.50433
6.64343
6.78528
6.92982
7.07697
7.22668
7.37887
7.53347
7.69041
7.84962
8.01102
8.17454
8.3401
8.50764
8.67706
8.84831
9.02129
9.19594
9.37218
9.54993
9.72913
9.90968
10.0915
10.2746
10.4588
10.6441
10.8303
11.0175
11.2056
11.3944
11.584
11.7742
11.965
12.1563
12.3481
12.5403
12.7328
12.9256
13.1186
13.3118
13.5051
13.6984
13.8917
14.085
14.2782
14.4712
14.664
14.8565
15.0488
15.2407
15.4323
15.6234
15.8141
16.0042
16.1939
16.3829
16.5714
16.7592
16.9463
17.1328
17.3185
17.5034
17.6876
17.8709
18.0534
18.2351
18.4158
18.5956
18.7745
18.9525
19.1295
19.3055
19.4805
19.6545
19.8274
19.9993
20.1701
20.3398
20.5085
20.676
20.8424
21.0077
21.1719
21.3349
21.4968
21.6575
21.8171
21.9754
22.1326
22.2886
22.4435
22.5971
22.7495
22.9007
23.0508
23.1996
23.3472
23.4936
23.6388
23.7828
23.9255
24.0671
24.2074
24.3465
24.4844
24.6211
24.7566
24.8908
25.0239
25.1557
25.2864
25.4158
25.544
25.6711
25.7969
25.9215
26.045
26.1673
26.2883
26.4082
26.5269
26.6445
26.7609
26.8761
26.9901
27.103
27.2147
27.3253
27.4347
27.543
27.6502
27.7562
27.8611
27.9648
28.0675
28.169
28.2694
28.3687
28.4669
28.564
28.6601
28.755
28.8489
28.9416
29.0333
29.124
29.2135
29.302
29.3895
29.4759
29.5613
29.6456
29.7289
29.8111
29.8923
29.9726
30.0518
30.1299
30.2071
30.2833
30.3584
30.4326
30.5058
30.578
30.6492
30.7195
30.7887
30.8571
30.9244
30.9908
31.0562
31.1207
31.1842
31.2468
31.3084
31.3692
31.4289
31.4878
31.5457
31.6028
31.6589
31.714
31.7683
31.8217
31.8742
31.9258
31.9765
32.0262
32.0752
32.1232
32.1703
32.2166
32.262
32.3065
32.3502
32.393
32.4349
32.476
32.5163
32.5556
32.5942
32.6318
32.6687
32.7047
32.7398
32.7741
32.8076
32.8403
32.8721
32.9031
32.9333
32.9626
32.9912
33.0189
33.0458
33.0719
33.0972
33.1216
33.1453
33.1682
33.1902
33.2115
33.2319
33.2516
33.2704
33.2885
33.3057
33.3222
33.3379
33.3528
33.3669
33.3802
33.3927
33.4044
33.4154
33.4255
33.4349
33.4435
33.4513
33.4583
33.4646
33.47
33.4747
33.4786
33.4817
33.4841
33.4856
33.4864
3.68366
3.6824
3.6799
3.67618
3.67129
3.66528
3.65822
3.65021
3.64133
3.6317
3.62143
3.61066
3.59951
3.58813
3.57666
3.56526
3.55407
3.54324
3.53294
3.5233
3.51448
3.50663
3.49988
3.49437
3.49025
3.48763
3.48664
3.48739
3.49002
3.49462
3.5013
3.51016
3.52131
3.53483
3.55081
3.56935
3.59052
3.61441
3.64109
3.67063
3.7031
3.73856
3.77709
3.81873
3.86353
3.91155
3.96283
4.0174
4.07532
4.13659
4.20125
4.26932
4.34082
4.41576
4.49413
4.57595
4.66121
4.74991
4.84203
4.93755
5.03645
5.13872
5.24432
5.35322
5.46538
5.58076
5.69933
5.82104
5.94584
6.07367
6.20449
6.33823
6.47484
6.61426
6.75642
6.90127
7.04872
7.19873
7.3512
7.50609
7.6633
7.82278
7.98444
8.14821
8.31402
8.4818
8.65146
8.82293
8.99613
9.17099
9.34744
9.52539
9.70478
9.88552
10.0675
10.2508
10.4351
10.6206
10.807
10.9943
11.1825
11.3715
11.5612
11.7515
11.9424
12.1338
12.3257
12.518
12.7106
12.9034
13.0965
13.2897
13.4831
13.6764
13.8698
14.0631
14.2563
14.4493
14.6421
14.8347
15.027
15.2189
15.4104
15.6015
15.7922
15.9823
16.1719
16.3609
16.5493
16.7371
16.9242
17.1106
17.2962
17.4811
17.6652
17.8485
18.0309
18.2124
18.3931
18.5729
18.7517
18.9295
19.1064
19.2823
19.4572
19.6311
19.8039
19.9756
20.1463
20.316
20.4845
20.6519
20.8182
20.9834
21.1474
21.3103
21.472
21.6326
21.792
21.9502
22.1073
22.2631
22.4178
22.5713
22.7236
22.8747
23.0245
23.1732
23.3207
23.4669
23.6119
23.7558
23.8984
24.0397
24.1799
24.3189
24.4566
24.5931
24.7285
24.8626
24.9955
25.1271
25.2576
25.3869
25.515
25.6418
25.7675
25.892
26.0153
26.1374
26.2583
26.3781
26.4966
26.614
26.7302
26.8453
26.9591
27.0719
27.1835
27.2939
27.4032
27.5113
27.6183
27.7242
27.8289
27.9325
28.035
28.1364
28.2367
28.3358
28.4339
28.5309
28.6267
28.7215
28.8152
28.9079
28.9994
29.0899
29.1794
29.2677
29.3551
29.4413
29.5266
29.6108
29.6939
29.776
29.8571
29.9372
30.0163
30.0943
30.1714
30.2474
30.3225
30.3966
30.4696
30.5417
30.6128
30.683
30.7521
30.8203
30.8875
30.9538
31.0191
31.0835
31.1469
31.2094
31.271
31.3316
31.3913
31.45
31.5079
31.5648
31.6208
31.6759
31.7301
31.7834
31.8358
31.8873
31.9379
31.9876
32.0364
32.0844
32.1314
32.1776
32.2229
32.2674
32.311
32.3537
32.3956
32.4366
32.4768
32.5161
32.5545
32.5921
32.6289
32.6648
32.6999
32.7342
32.7676
32.8002
32.832
32.863
32.8931
32.9224
32.9509
32.9786
33.0054
33.0315
33.0567
33.0811
33.1047
33.1276
33.1496
33.1708
33.1912
33.2108
33.2296
33.2477
33.2649
33.2813
33.297
33.3119
33.3259
33.3392
33.3517
33.3634
33.3743
33.3845
33.3938
33.4024
33.4102
33.4172
33.4235
33.4289
33.4336
33.4375
33.4406
33.4429
33.4445
33.4453
3.62401
3.62279
3.62034
3.6167
3.6119
3.60602
3.5991
3.59125
3.58255
3.57311
3.56305
3.55248
3.54154
3.53038
3.51912
3.50794
3.49696
3.48635
3.47626
3.46685
3.45825
3.45063
3.44413
3.43888
3.43502
3.43269
3.43202
3.43311
3.4361
3.4411
3.4482
3.45752
3.46914
3.48317
3.49969
3.51878
3.54053
3.56502
3.5923
3.62247
3.65557
3.69167
3.73084
3.77312
3.81857
3.86723
3.91914
3.97435
4.03288
4.09477
4.16005
4.22872
4.30081
4.37634
4.45529
4.53769
4.62352
4.71277
4.80544
4.90151
5.00096
5.10376
5.20989
5.31931
5.43199
5.54789
5.66697
5.78918
5.91447
6.04279
6.1741
6.30832
6.44541
6.5853
6.72792
6.87323
7.02113
7.17158
7.3245
7.47982
7.63746
7.79736
7.95944
8.12362
8.28984
8.45801
8.62806
8.79991
8.97349
9.14872
9.32553
9.50384
9.68357
9.86465
10.047
10.2306
10.4152
10.601
10.7877
10.9753
11.1638
11.3531
11.543
11.7336
11.9248
12.1164
12.3086
12.5011
12.6939
12.887
13.0802
13.2737
13.4672
13.6608
13.8543
14.0478
14.2411
14.4343
14.6273
14.82
15.0124
15.2044
15.3961
15.5873
15.7781
15.9683
16.158
16.3471
16.5356
16.7235
16.9106
17.0971
17.2828
17.4677
17.6518
17.8351
18.0176
18.1992
18.3799
18.5596
18.7385
18.9164
19.0932
19.2691
19.444
19.6179
19.7907
19.9624
20.1331
20.3027
20.4712
20.6386
20.8049
20.97
21.134
21.2968
21.4585
21.6191
21.7784
21.9366
22.0936
22.2494
22.404
22.5574
22.7096
22.8606
23.0104
23.159
23.3064
23.4526
23.5975
23.7413
23.8838
24.0251
24.1652
24.3041
24.4417
24.5782
24.7134
24.8474
24.9802
25.1118
25.2422
25.3714
25.4993
25.6261
25.7517
25.8761
25.9993
26.1213
26.2421
26.3617
26.4802
26.5975
26.7136
26.8286
26.9423
27.055
27.1664
27.2768
27.3859
27.494
27.6009
27.7066
27.8113
27.9148
28.0172
28.1185
28.2186
28.3177
28.4157
28.5126
28.6083
28.703
28.7966
28.8892
28.9806
29.071
29.1604
29.2487
29.3359
29.4221
29.5072
29.5913
29.6744
29.7564
29.8374
29.9174
29.9964
30.0744
30.1513
30.2273
30.3023
30.3762
30.4492
30.5212
30.5922
30.6623
30.7314
30.7995
30.8666
30.9328
30.9981
31.0624
31.1257
31.1881
31.2496
31.3102
31.3698
31.4285
31.4862
31.5431
31.599
31.654
31.7082
31.7614
31.8137
31.8651
31.9157
31.9653
32.0141
32.062
32.109
32.1551
32.2004
32.2448
32.2883
32.331
32.3728
32.4138
32.4539
32.4932
32.5316
32.5691
32.6059
32.6417
32.6768
32.711
32.7444
32.777
32.8087
32.8396
32.8697
32.899
32.9274
32.955
32.9819
33.0079
33.0331
33.0575
33.0811
33.1039
33.1259
33.147
33.1674
33.187
33.2058
33.2238
33.241
33.2574
33.2731
33.2879
33.302
33.3152
33.3277
33.3394
33.3503
33.3604
33.3698
33.3784
33.3861
33.3931
33.3994
33.4048
33.4095
33.4134
33.4165
33.4188
33.4204
33.4212
3.56772
3.56647
3.56397
3.56026
3.55537
3.54938
3.54233
3.53433
3.52547
3.51585
3.50559
3.49483
3.48368
3.47231
3.46084
3.44944
3.43827
3.42747
3.4172
3.40763
3.3989
3.39117
3.38458
3.37928
3.37542
3.37312
3.37252
3.37374
3.37689
3.3821
3.38947
3.3991
3.41109
3.42552
3.44249
3.46207
3.48435
3.50939
3.53726
3.56803
3.60177
3.63852
3.67834
3.72128
3.7674
3.81673
3.86931
3.92519
3.98438
4.04693
4.11286
4.18218
4.2549
4.33105
4.41063
4.49364
4.58007
4.66992
4.76318
4.85982
4.95984
5.06321
5.16989
5.27987
5.39309
5.50953
5.62913
5.75186
5.87767
6.0065
6.13831
6.27303
6.4106
6.55097
6.69407
6.83984
6.98821
7.13911
7.29247
7.44823
7.6063
7.76662
7.92912
8.09371
8.26032
8.42889
8.59932
8.77155
8.9455
9.12109
9.29824
9.47689
9.65696
9.83836
10.021
10.2049
10.3899
10.5759
10.7629
10.9508
11.1396
11.3291
11.5193
11.7101
11.9015
12.0934
12.2857
12.4784
12.6714
12.8647
13.0581
13.2517
13.4454
13.6391
13.8328
14.0264
14.2199
14.4132
14.6063
14.7991
14.9916
15.1837
15.3755
15.5668
15.7576
15.9479
16.1376
16.3268
16.5153
16.7032
16.8904
17.0768
17.2625
17.4475
17.6316
17.8149
17.9973
18.1789
18.3596
18.5393
18.7181
18.896
19.0728
19.2486
19.4235
19.5973
19.77
19.9417
20.1123
20.2818
20.4502
20.6176
20.7837
20.9488
21.1127
21.2754
21.437
21.5974
21.7567
21.9148
22.0716
22.2273
22.3818
22.5351
22.6872
22.8381
22.9878
23.1363
23.2835
23.4296
23.5744
23.718
23.8604
24.0016
24.1415
24.2802
24.4178
24.5541
24.6891
24.823
24.9557
25.0871
25.2174
25.3464
25.4742
25.6009
25.7263
25.8506
25.9736
26.0955
26.2161
26.3356
26.454
26.5711
26.6871
26.8019
26.9155
27.028
27.1393
27.2495
27.3585
27.4664
27.5732
27.6788
27.7833
27.8867
27.9889
28.0901
28.1901
28.289
28.3869
28.4836
28.5792
28.6738
28.7673
28.8597
28.951
29.0413
29.1305
29.2186
29.3057
29.3918
29.4768
29.5608
29.6437
29.7256
29.8065
29.8864
29.9652
30.0431
30.1199
30.1958
30.2706
30.3445
30.4173
30.4892
30.5601
30.6301
30.699
30.7671
30.8341
30.9002
30.9653
31.0295
31.0928
31.1551
31.2164
31.2769
31.3364
31.395
31.4527
31.5094
31.5653
31.6202
31.6743
31.7274
31.7796
31.831
31.8814
31.931
31.9797
32.0275
32.0744
32.1205
32.1657
32.21
32.2535
32.2961
32.3378
32.3787
32.4187
32.4579
32.4963
32.5338
32.5704
32.6063
32.6412
32.6754
32.7087
32.7412
32.7729
32.8038
32.8338
32.863
32.8914
32.919
32.9458
32.9718
32.9969
33.0213
33.0448
33.0676
33.0895
33.1107
33.131
33.1506
33.1693
33.1873
33.2045
33.2209
33.2365
33.2513
33.2653
33.2786
33.291
33.3027
33.3136
33.3237
33.333
33.3416
33.3494
33.3563
33.3626
33.368
33.3727
33.3765
33.3796
33.382
33.3835
33.3843
3.49974
3.49853
3.49607
3.49243
3.48764
3.48175
3.47484
3.46698
3.45827
3.44882
3.43873
3.42813
3.41716
3.40595
3.39465
3.38341
3.37237
3.36171
3.35158
3.34214
3.33353
3.32592
3.31946
3.3143
3.31059
3.30845
3.30803
3.30945
3.31285
3.31833
3.326
3.33598
3.34835
3.36321
3.38065
3.40074
3.42356
3.44919
3.47768
3.5091
3.54351
3.58096
3.6215
3.66517
3.71203
3.76212
3.81546
3.87209
3.93205
3.99536
4.06204
4.13211
4.20558
4.28247
4.36278
4.44651
4.53366
4.62422
4.71818
4.81552
4.91623
5.02028
5.12765
5.23829
5.35218
5.46927
5.58953
5.71291
5.83935
5.96882
6.10125
6.23659
6.37478
6.51576
6.65946
6.80582
6.95478
7.10626
7.2602
7.41652
7.57515
7.73603
7.89907
8.06419
8.23134
8.40042
8.57137
8.7441
8.91855
9.09462
9.27226
9.45138
9.63191
9.81376
9.99688
10.1812
10.3666
10.553
10.7404
10.9287
11.1179
11.3077
11.4983
11.6895
11.8812
12.0735
12.2661
12.4591
12.6525
12.846
13.0398
13.2337
13.4276
13.6216
13.8155
14.0094
14.2031
14.3966
14.5899
14.7829
14.9756
15.1679
15.3598
15.5513
15.7423
15.9328
16.1226
16.3119
16.5006
16.6886
16.8759
17.0625
17.2483
17.4333
17.6175
17.8009
17.9834
18.1651
18.3458
18.5256
18.7044
18.8823
19.0592
19.2351
19.4099
19.5837
19.7565
19.9282
20.0988
20.2683
20.4367
20.604
20.7702
20.9352
21.0991
21.2618
21.4233
21.5837
21.7429
21.901
22.0578
22.2134
22.3679
22.5211
22.6732
22.824
22.9736
23.122
23.2692
23.4151
23.5599
23.7034
23.8457
23.9868
24.1267
24.2653
24.4028
24.539
24.674
24.8078
24.9403
25.0717
25.2018
25.3308
25.4585
25.585
25.7104
25.8345
25.9574
26.0792
26.1998
26.3192
26.4374
26.5544
26.6703
26.785
26.8985
27.0109
27.1221
27.2322
27.3411
27.4489
27.5555
27.661
27.7654
27.8687
27.9708
28.0719
28.1718
28.2706
28.3683
28.4649
28.5605
28.6549
28.7483
28.8406
28.9318
29.022
29.1111
29.1991
29.2861
29.3721
29.457
29.5408
29.6237
29.7055
29.7863
29.8661
29.9448
30.0226
30.0993
30.1751
30.2498
30.3236
30.3963
30.4681
30.539
30.6088
30.6777
30.7456
30.8126
30.8786
30.9436
31.0077
31.0709
31.1331
31.1944
31.2548
31.3142
31.3727
31.4303
31.487
31.5427
31.5976
31.6516
31.7046
31.7568
31.8081
31.8584
31.9079
31.9566
32.0043
32.0512
32.0972
32.1423
32.1865
32.2299
32.2725
32.3142
32.355
32.395
32.4341
32.4724
32.5099
32.5465
32.5822
32.6172
32.6513
32.6846
32.717
32.7487
32.7795
32.8095
32.8386
32.867
32.8945
32.9213
32.9472
32.9723
32.9966
33.0202
33.0429
33.0648
33.0859
33.1062
33.1258
33.1445
33.1624
33.1796
33.196
33.2115
33.2263
33.2403
33.2536
33.266
33.2777
33.2885
33.2986
33.3079
33.3165
33.3242
33.3312
33.3374
33.3429
33.3475
33.3514
33.3545
33.3568
33.3584
33.3591
3.43347
3.43225
3.42978
3.42612
3.42129
3.41536
3.4084
3.40049
3.39171
3.38219
3.37201
3.36133
3.35025
3.33893
3.32751
3.31614
3.30498
3.29418
3.28391
3.27433
3.2656
3.25787
3.2513
3.24604
3.24225
3.24007
3.23963
3.24107
3.24452
3.2501
3.25792
3.26808
3.2807
3.29586
3.31365
3.33414
3.35742
3.38355
3.4126
3.44462
3.47966
3.51778
3.55902
3.60343
3.65104
3.70188
3.756
3.81343
3.87418
3.93828
4.00575
4.07662
4.15088
4.22855
4.30964
4.39414
4.48206
4.57338
4.66809
4.76618
4.86762
4.9724
5.08048
5.19184
5.30643
5.42422
5.54517
5.66923
5.79636
5.92649
6.05958
6.19558
6.33441
6.47603
6.62037
6.76736
6.91693
7.06902
7.22356
7.38047
7.53969
7.70114
7.86474
8.03043
8.19812
8.36775
8.53922
8.71248
8.88743
9.06401
9.24214
9.42175
9.60274
9.78506
9.96863
10.1534
10.3392
10.5261
10.7139
10.9026
11.0921
11.2824
11.4733
11.6648
11.8569
12.0495
12.2425
12.4358
12.6294
12.8233
13.0173
13.2115
13.4057
13.5999
13.7941
13.9882
14.1821
14.3758
14.5693
14.7625
14.9554
15.1479
15.34
15.5316
15.7227
15.9133
16.1033
16.2928
16.4815
16.6696
16.857
17.0437
17.2296
17.4147
17.5989
17.7824
17.9649
18.1466
18.3274
18.5072
18.686
18.8639
19.0408
19.2167
19.3915
19.5653
19.7381
19.9097
20.0803
20.2498
20.4182
20.5854
20.7515
20.9165
21.0803
21.243
21.4045
21.5648
21.7239
21.8819
22.0386
22.1942
22.3486
22.5017