/*--------------------------------*- C++ -*----------------------------------*\
| =========                 |                                                 |
| \\      /  F ield         | OpenFOAM: The Open Source CFD Toolbox           |
|  \\    /   O peration     | Version:  2212                                  |
|   \\  /    A nd           | Website:  www.openfoam.com                      |
|    \\/     M anipulation  |                                                 |
\*---------------------------------------------------------------------------*/
FoamFile
{
    version     2.0;
    format      ascii;
    arch        "LSB;label=32;scalar=64";
    class       surfaceScalarField;
    location    "230";
    object      phi;
}
// * * * * * * * * * * * * * * * * * * * * * * * * * * * * * * * * * * * * * //

dimensions      [1 0 -1 0 0 0 0];

oriented        oriented;

internalField   nonuniform List<scalar> 
408640
(
-1758.62
1757.86
-3515.97
1757.14
-5268.96
1752.78
-7014.55
1745.37
-8749.73
1734.95
-10471.5
1721.55
-12176.9
1705.14
-13863
1685.84
-15527.1
1663.83
-17166.8
1639.39
-18779.8
1612.78
-20364.4
1584.27
-21918.8
1554.08
-23441.5
1522.4
-24931.2
1489.41
-26386.8
1455.31
-27807.5
1420.31
-29192.4
1384.65
-30541.3
1348.57
-31853.9
1312.29
-33130.2
1276.04
-34370.5
1240
-35575.1
1204.35
-36744.6
1169.24
-37879.6
1134.75
-38980.8
1100.97
-40048.9
1067.94
-41084.8
1035.69
-42089.2
1004.2
-43062.8
973.476
-44006.5
943.49
-44920.9
914.21
-45806.6
885.599
-46664.4
857.615
-47494.7
830.213
-48298.2
803.349
-49075.3
776.981
-49826.5
751.071
-50552.2
725.583
-51252.8
700.488
-51928.7
675.759
-52580.2
651.373
-53207.6
627.312
-53811.2
603.561
-54391.4
580.108
-54948.4
556.945
-55482.6
534.065
-55994.1
511.467
-56483.3
489.147
-56950.5
467.107
-57395.9
445.347
-57819.8
423.868
-58222.5
402.673
-58604.3
381.763
-58965.5
361.142
-59306.3
340.812
-59627.1
320.775
-59928.2
301.034
-60209.8
281.592
-60472.2
262.45
-60715.8
243.611
-60940.9
225.078
-61147.8
206.851
-61336.7
188.934
-61508
171.326
-61662
154.031
-61799
137.049
-61919.4
120.381
-62023.4
104.029
-62111.3
87.992
-62183.6
72.272
-62240.4
56.8689
-62282.1
41.783
-62309.1
27.0142
-62321.6
12.5625
-62320
-1.57264
-62304.5
-15.3916
-62275.6
-28.8953
-62233.4
-42.0844
-62178.4
-54.9602
-62110.8
-67.524
-62030.9
-79.777
-61939.1
-91.7211
-61835.7
-103.358
-61720.9
-114.69
-61595.1
-125.718
-61458.6
-136.446
-61311.6
-146.875
-61154.5
-157.008
-60987.6
-166.849
-60811.1
-176.399
-60625.3
-185.662
-60430.6
-194.64
-60227.1
-203.338
-60015.3
-211.758
-59795.3
-219.904
-59567.4
-227.78
-59331.9
-235.388
-59089
-242.734
-58839.1
-249.82
-58582.3
-256.65
-58319
-263.229
-58049.3
-269.561
-57773.6
-275.649
-57492
-281.497
-57204.7
-287.111
-56912.1
-292.494
-56614.4
-297.65
-56311.7
-302.583
-56004.3
-307.299
-55692.4
-311.8
-55376.2
-316.092
-55055.9
-320.179
-54731.7
-324.065
-54403.8
-327.755
-54072.5
-331.252
-53737.8
-334.562
-53400
-337.688
-53059.3
-340.635
-52715.7
-343.407
-52369.6
-346.008
-52021.1
-348.442
-51670.3
-350.714
-51317.4
-352.828
-50962.5
-354.788
-50605.8
-356.598
-50247.4
-358.262
-49887.5
-359.784
-49526.3
-361.168
-49163.8
-362.418
-48800.1
-363.538
-48435.5
-364.531
-48070
-365.401
-47703.8
-366.152
-47336.9
-366.788
-46969.6
-367.312
-46601.8
-367.728
-46233.6
-368.038
-45865.3
-368.247
-45496.9
-368.358
-45128.5
-368.375
-44760.1
-368.299
-44391.9
-368.135
-44024
-367.886
-43656.4
-367.554
-43289.2
-367.143
-42922.5
-366.656
-42556.3
-366.095
-42190.8
-365.463
-41826
-364.763
-41462
-363.997
-41098.8
-363.169
-40736.5
-362.281
-40375.1
-361.335
-40014.7
-360.333
-39655.4
-359.279
-39297.2
-358.173
-38940.2
-357.02
-38584.4
-355.82
-38229.8
-354.577
-37876.5
-353.291
-37524.5
-351.966
-37173.9
-350.602
-36824.7
-349.203
-36476.9
-347.769
-36130.6
-346.303
-35785.8
-344.807
-35442.5
-343.282
-35100.8
-341.729
-34760.7
-340.152
-34422.2
-338.55
-34085.3
-336.926
-33750
-335.281
-33416.4
-333.616
-33084.5
-331.934
-32754.3
-330.235
-32425.8
-328.52
-32099
-326.792
-31774
-325.05
-31450.8
-323.297
-31129.3
-321.534
-30809.6
-319.761
-30491.6
-317.979
-30175.5
-316.191
-29861.1
-314.396
-29548.6
-312.596
-29237.8
-310.792
-28928.9
-308.984
-28621.8
-307.174
-28316.5
-305.362
-28013
-303.549
-27711.3
-301.737
-27411.5
-299.924
-27113.4
-298.114
-26817.2
-296.306
-26522.7
-294.5
-26230.1
-292.698
-25939.3
-290.9
-25650.2
-289.107
-25363
-287.319
-25077.5
-285.537
-24793.8
-283.762
-24511.9
-281.993
-24231.7
-280.232
-23953.3
-278.479
-23676.7
-276.735
-23401.8
-274.999
-23128.6
-273.272
-22857.1
-271.555
-22587.3
-269.849
-22319.2
-268.152
-22052.9
-266.467
-21788.1
-264.792
-21525.1
-263.129
-21263.7
-261.478
-21003.9
-259.839
-20745.8
-258.212
-20489.3
-256.598
-20234.4
-254.996
-19981
-253.408
-19729.3
-251.833
-19479.1
-250.271
-19230.4
-248.724
-18983.3
-247.19
-18737.7
-245.67
-18493.6
-244.165
-18251
-242.674
-18009.9
-241.198
-17770.2
-239.737
-17532
-238.29
-17295.2
-236.859
-17059.9
-235.442
-16825.9
-234.041
-16593.3
-232.656
-16362.1
-231.286
-16132.2
-229.931
-15903.7
-228.593
-15676.5
-227.27
-15450.6
-225.962
-15226
-224.671
-15002.6
-223.396
-14780.5
-222.137
-14559.7
-220.894
-14340.1
-219.666
-14121.7
-218.456
-13904.5
-217.261
-13688.5
-216.083
-13473.6
-214.921
-13259.9
-213.775
-13047.3
-212.645
-12835.8
-211.532
-12625.4
-210.436
-12416.1
-209.355
-12207.8
-208.291
-12000.6
-207.244
-11794.4
-206.213
-11589.3
-205.198
-11385.1
-204.2
-11181.9
-203.218
-10979.7
-202.253
-10778.4
-201.304
-10578.1
-200.371
-10378.6
-199.455
-10180.1
-198.555
-9982.45
-197.671
-9785.66
-196.804
-9589.73
-195.953
-9394.62
-195.119
-9200.34
-194.301
-9006.85
-193.499
-8814.15
-192.713
-8622.21
-191.943
-8431.03
-191.19
-8240.58
-190.453
-8050.85
-189.732
-7861.82
-189.028
-7673.48
-188.339
-7485.81
-187.666
-7298.8
-187.01
-7112.43
-186.37
-6926.67
-185.745
-6741.53
-185.137
-6556.97
-184.544
-6372.99
-183.968
-6189.57
-183.408
-6006.69
-182.863
-5824.34
-182.334
-5642.51
-181.821
-5461.16
-181.324
-5280.3
-180.843
-5099.9
-180.378
-4919.95
-179.928
-4740.43
-179.494
-4561.33
-179.076
-4382.63
-178.673
-4204.32
-178.286
-4026.37
-177.915
-3848.78
-177.559
-3671.53
-177.219
-3494.61
-176.895
-3317.99
-176.586
-3141.66
-176.293
-2965.61
-176.015
-2789.83
-175.753
-2614.28
-175.506
-2438.97
-175.275
-2263.88
-175.059
-2088.98
-174.859
-1914.27
-174.674
-1739.72
-174.505
-1565.33
-174.352
-1391.08
-174.214
-1216.94
-174.093
-1042.91
-173.988
-868.974
-173.899
-695.105
-173.828
-521.291
-173.773
-347.512
-173.737
-173.754
-173.717
-173.712
-1746.97
3504.6
-3492.7
3502.63
-5234.3
3494.15
-6968.89
3479.73
-8693.68
3459.51
-10405.9
3433.48
-12102.6
3401.65
-13781.3
3364.21
-15439.2
3321.48
-17074.1
3273.96
-18683.7
3222.14
-20266.3
3166.51
-21820
3107.46
-23343.3
3045.35
-24834.7
2980.52
-26293.1
2913.33
-27717.3
2844.21
-29106.6
2773.6
-30460.3
2701.98
-31778.1
2629.81
-33059.9
2557.5
-34305.7
2485.48
-35515.7
2414.08
-36690.3
2343.62
-37830.1
2274.31
-38935.7
2206.33
-40007.8
2139.79
-41047
2074.76
-42054.3
2011.26
-43030.3
1949.28
-43975.8
1888.8
-44891.5
1829.77
-45778.2
1772.11
-46636.5
1715.76
-47467
1660.62
-48270.4
1606.6
-49047.2
1553.63
-49797.8
1501.61
-50522.8
1450.48
-51222.6
1400.18
-51897.6
1350.63
-52548.1
1301.8
-53174.6
1253.65
-53777.2
1206.12
-54356.4
1159.21
-54912.4
1112.88
-55445.5
1067.13
-55956.1
1021.94
-56444.3
977.32
-56910.5
933.256
-57355
889.754
-57778
846.816
-58179.8
804.445
-58560.7
762.646
-58921
721.424
-59261
680.784
-59581
640.731
-59881.3
601.269
-60162.1
562.404
-60423.8
524.141
-60666.7
486.484
-60891
449.437
-61097.2
413.003
-61285.4
377.188
-61456.1
341.993
-61609.4
307.421
-61745.8
273.477
-61865.6
240.16
-61969
207.474
-62056.4
175.42
-62128.1
143.999
-62184.4
113.212
-62225.6
83.0588
-62252.1
53.54
-62264.1
24.655
-62262
-3.59671
-62246.2
-31.2164
-62216.8
-58.2054
-62174.2
-84.5656
-62118.8
-110.299
-62050.9
-135.409
-61970.7
-159.897
-61878.5
-183.768
-61774.8
-207.024
-61659.7
-229.67
-61533.7
-251.71
-61396.9
-273.148
-61249.7
-293.99
-61092.3
-314.24
-60925.2
-333.904
-60748.5
-352.988
-60562.6
-371.498
-60367.7
-389.439
-60164.1
-406.819
-59952.1
-423.644
-59732
-439.921
-59504
-455.656
-59268.4
-470.859
-59025.5
-485.535
-58775.5
-499.692
-58518.7
-513.339
-58255.4
-526.483
-57985.7
-539.133
-57709.9
-551.295
-57428.3
-562.979
-57141.1
-574.193
-56848.6
-584.946
-56550.9
-595.245
-56248.2
-605.1
-55940.9
-614.519
-55629.1
-623.51
-55313
-632.083
-54992.8
-640.245
-54668.7
-648.007
-54341
-655.375
-54009.8
-662.359
-53675.3
-668.968
-53337.7
-675.211
-52997.1
-681.094
-52653.8
-686.629
-52307.8
-691.822
-51959.5
-696.682
-51608.9
-701.218
-51256.2
-705.437
-50901.5
-709.349
-50545.1
-712.961
-50187
-716.281
-49827.3
-719.318
-49466.3
-722.079
-49104.1
-724.571
-48740.7
-726.804
-48376.4
-728.783
-48011.2
-730.517
-47645.3
-732.014
-47278.7
-733.279
-46911.6
-734.322
-46544.1
-735.147
-46176.3
-735.763
-45808.3
-736.177
-45440.2
-736.394
-45072.1
-736.422
-44704.1
-736.267
-44336.2
-735.935
-43968.6
-735.432
-43601.4
-734.765
-43234.5
-733.939
-42868.1
-732.961
-42502.4
-731.835
-42137.2
-730.568
-41772.8
-729.166
-41409.1
-727.632
-41046.3
-725.973
-40684.3
-724.194
-40323.3
-722.299
-39963.3
-720.294
-39604.4
-718.183
-39246.6
-715.971
-38889.9
-713.663
-38534.5
-711.262
-38180.3
-708.773
-37827.3
-706.2
-37475.7
-703.548
-37125.5
-700.82
-36776.7
-698.021
-36429.3
-695.153
-36083.4
-692.22
-35739
-689.227
-35396.1
-686.176
-35054.8
-683.071
-34715
-679.915
-34376.9
-676.712
-34040.4
-673.463
-33705.5
-670.173
-33372.3
-666.845
-33040.8
-663.48
-32711
-660.082
-32382.9
-656.653
-32056.5
-653.196
-31731.9
-649.714
-31409
-646.208
-31087.9
-642.682
-30768.5
-639.136
-30451
-635.574
-30135.2
-631.998
-29821.3
-628.409
-29509.1
-624.81
-29198.7
-621.202
-28890.2
-617.588
-28583.5
-613.969
-28278.5
-610.346
-27975.4
-606.722
-27674.1
-603.097
-27374.6
-599.474
-27077
-595.854
-26781.1
-592.239
-26487
-588.629
-26194.8
-585.026
-25904.3
-581.432
-25615.6
-577.847
-25328.7
-574.273
-25043.6
-570.71
-24760.3
-567.161
-24478.8
-563.625
-24199
-560.105
-23920.9
-556.6
-23644.6
-553.112
-23370
-549.642
-23097.2
-546.191
-22826.1
-542.759
-22556.6
-539.347
-22288.9
-535.955
-22022.9
-532.586
-21758.5
-529.239
-21495.8
-525.914
-21234.7
-522.613
-20975.3
-519.336
-20717.5
-516.084
-20461.3
-512.857
-20206.8
-509.656
-19953.8
-506.481
-19702.3
-503.333
-19452.5
-500.211
-19204.2
-497.118
-18957.4
-494.052
-18712.1
-491.014
-18468.3
-488.005
-18226.1
-485.025
-17985.3
-482.074
-17745.9
-479.153
-17508
-476.262
-17271.5
-473.4
-17036.5
-470.569
-16802.8
-467.769
-16570.6
-464.999
-16339.6
-462.261
-16110.1
-459.553
-15881.9
-456.877
-15655
-454.233
-15429.4
-451.62
-15205.1
-449.039
-14982
-446.49
-14760.3
-443.973
-14539.7
-441.488
-14320.4
-439.036
-14102.3
-436.615
-13885.4
-434.228
-13669.6
-431.872
-13455.1
-429.549
-13241.6
-427.259
-13029.3
-425.002
-12818.1
-422.777
-12608
-420.585
-12399
-418.426
-12191
-416.299
-11984.1
-414.205
-11778.2
-412.144
-11573.3
-410.116
-11369.4
-408.121
-11166.5
-406.159
-10964.6
-404.229
-10763.6
-402.332
-10563.5
-400.468
-10364.3
-398.637
-10166.1
-396.838
-9968.69
-395.072
-9772.18
-393.339
-9576.51
-391.638
-9381.67
-389.97
-9187.65
-388.335
-8994.43
-386.732
-8801.99
-385.161
-8610.32
-383.623
-8419.4
-382.118
-8229.21
-380.645
-8039.74
-379.204
-7850.98
-377.795
-7662.89
-376.419
-7475.48
-375.075
-7288.73
-373.763
-7102.61
-372.483
-6917.11
-371.235
-6732.22
-370.019
-6547.92
-368.835
-6364.19
-367.683
-6181.03
-366.562
-5998.4
-365.474
-5816.3
-364.417
-5634.71
-363.392
-5453.62
-362.399
-5273.01
-361.437
-5092.86
-360.506
-4913.15
-359.607
-4733.88
-358.74
-4555.03
-357.904
-4376.58
-357.099
-4198.51
-356.326
-4020.81
-355.584
-3843.47
-354.873
-3666.46
-354.194
-3489.78
-353.545
-3313.41
-352.928
-3137.32
-352.342
-2961.52
-351.786
-2785.97
-351.262
-2610.67
-350.769
-2435.6
-350.307
-2260.75
-349.876
-2086.09
-349.476
-1911.62
-349.107
-1737.32
-348.769
-1563.17
-348.462
-1389.16
-348.187
-1215.26
-347.945
-1041.48
-347.734
-867.776
-347.557
-694.148
-347.414
-520.574
-347.306
-347.037
-347.232
-173.519
-347.193
-347.188
-1732.2
5236.55
-3463.1
5233.28
-5190.11
5220.9
-6910.62
5199.98
-8622.08
5170.7
-10321.9
5133.04
-12007.6
5087.02
-13676.6
5032.88
-15326.4
4971.06
-16955
4902.21
-18560.2
4826.98
-20140
4746.03
-21692.8
4659.9
-23216.9
4569.05
-24710.7
4473.97
-26172.9
4375.16
-27602.3
4273.22
-28997.8
4168.78
-30358.7
4062.53
-31684.3
3955.13
-32974.4
3847.23
-34228.7
3739.45
-35447.2
3632.32
-36630.2
3526.32
-37778
3421.84
-38891.1
3319.16
-39970
3218.5
-41015.5
3120
-42028.1
3023.73
-43008.8
2929.73
-43958.2
2837.99
-44877
2748.46
-45766.1
2661.06
-46626.2
2575.69
-47458
2492.24
-48262.1
2410.57
-49039.2
2330.56
-49789.8
2252.08
-50514.4
2175.02
-51213.6
2099.27
-51887.8
2024.73
-52537.5
1951.33
-53162.9
1878.97
-53764.5
1807.61
-54342.5
1737.19
-54897.4
1667.67
-55429.4
1599.04
-55938.8
1531.26
-56425.8
1464.34
-56890.9
1398.26
-57334.2
1333.03
-57756.1
1268.65
-58156.8
1205.12
-58536.6
1142.44
-58895.9
1080.64
-59234.8
1019.71
-59553.8
959.655
-59853
900.49
-60132.9
842.221
-60393.6
784.854
-60635.5
728.396
-60858.9
672.853
-61064.1
618.231
-61251.5
564.535
-61421.2
511.77
-61573.7
459.941
-61709.3
409.052
-61828.2
359.105
-61930.8
310.103
-62017.4
262.05
-62088.3
214.945
-62143.8
168.792
-62184.3
123.59
-62210.1
79.339
-62221.4
36.039
-62218.6
-6.31131
-62202.1
-47.7135
-62172
-88.1698
-62128.9
-127.683
-62072.8
-166.256
-62004.3
-203.893
-61923.5
-240.599
-61830.8
-276.378
-61726.5
-311.236
-61610.9
-345.178
-61484.3
-378.211
-61347.1
-410.342
-61199.4
-441.578
-61041.6
-471.927
-60874
-501.397
-60696.9
-529.996
-60510.6
-557.735
-60315.3
-584.621
-60111.3
-610.666
-59899
-635.878
-59678.5
-660.268
-59450.3
-683.847
-59214.4
-706.626
-58971.2
-728.616
-58720.9
-749.828
-58463.9
-770.275
-58200.3
-789.967
-57930.4
-808.918
-57654.5
-827.139
-57372.7
-844.642
-57085.3
-861.441
-56792.6
-877.548
-56494.8
-892.976
-56192
-907.736
-55884.6
-921.844
-55572.7
-935.31
-55256.5
-948.149
-54936.3
-960.373
-54612.2
-971.995
-54284.4
-983.029
-53953.2
-993.486
-53618.6
-1003.38
-53281
-1012.73
-52940.5
-1021.54
-52597.2
-1029.82
-52251.3
-1037.59
-51903
-1044.87
-51552.5
-1051.65
-51199.8
-1057.97
-50845.3
-1063.82
-50488.9
-1069.22
-50130.9
-1074.19
-49771.4
-1078.73
-49410.5
-1082.86
-49048.4
-1086.58
-48685.2
-1089.92
-48321.1
-1092.87
-47956
-1095.46
-47590.3
-1097.7
-47223.9
-1099.58
-46857
-1101.14
-46489.7
-1102.36
-46122.1
-1103.28
-45754.3
-1103.89
-45386.5
-1104.2
-45018.6
-1104.24
-44650.8
-1103.99
-44283.2
-1103.49
-43915.8
-1102.73
-43548.8
-1101.72
-43182.2
-1100.47
-42816.2
-1099
-42450.6
-1097.3
-42085.8
-1095.39
-41721.6
-1093.28
-41358.2
-1090.98
-40995.7
-1088.48
-40634
-1085.81
-40273.4
-1082.96
-39913.7
-1079.95
-39555.1
-1076.78
-39197.6
-1073.45
-38841.2
-1069.99
-38486.1
-1066.38
-38132.2
-1062.64
-37779.6
-1058.78
-37428.3
-1054.8
-37078.5
-1050.7
-36730
-1046.5
-36382.9
-1042.2
-36037.4
-1037.8
-35693.3
-1033.3
-35350.7
-1028.73
-35009.8
-1024.07
-34670.4
-1019.33
-34332.6
-1014.52
-33996.4
-1009.65
-33661.9
-1004.71
-33329
-999.719
-32997.9
-994.671
-32668.4
-989.573
-32340.7
-984.43
-32014.6
-979.244
-31690.4
-974.02
-31367.9
-968.761
-31047.1
-963.471
-30728.1
-958.153
-30410.9
-952.81
-30095.5
-947.446
-29781.9
-942.064
-29470.1
-936.665
-29160.1
-931.254
-28851.9
-925.833
-28545.6
-920.405
-28241
-914.972
-27938.2
-909.536
-27637.3
-904.1
-27338.2
-898.667
-27040.8
-893.238
-26745.3
-887.816
-26451.6
-882.403
-26159.7
-877
-25869.6
-871.61
-25581.3
-866.234
-25294.7
-860.874
-25010
-855.532
-24727
-850.21
-24445.8
-844.908
-24166.4
-839.629
-23888.7
-834.374
-23612.7
-829.144
-23338.5
-823.941
-23066
-818.765
-22795.2
-813.619
-22526.1
-808.503
-22258.7
-803.418
-21993
-798.366
-21729
-793.347
-21466.6
-788.362
-21205.9
-783.413
-20946.8
-778.5
-20689.4
-773.624
-20433.5
-768.785
-20179.3
-763.986
-19926.6
-759.225
-19675.5
-754.505
-19426
-749.825
-19178
-745.187
-18931.5
-740.59
-18686.6
-736.036
-18443.1
-731.524
-18201.1
-727.056
-17960.7
-722.632
-17721.6
-718.253
-17484.1
-713.918
-17247.9
-709.628
-17013.1
-705.384
-16779.8
-701.186
-16547.8
-697.033
-16317.2
-692.928
-16088
-688.869
-15860.1
-684.857
-15633.5
-680.892
-15408.2
-676.975
-15184.2
-673.106
-14961.4
-669.284
-14740
-665.511
-14519.7
-661.786
-14300.7
-658.109
-14082.9
-654.48
-13866.3
-650.901
-13650.8
-647.37
-13436.5
-643.887
-13223.4
-640.454
-13011.4
-637.07
-12800.4
-633.735
-12590.6
-630.448
-12381.9
-627.211
-12174.2
-624.023
-11967.6
-620.885
-11761.9
-617.795
-11557.3
-614.755
-11353.7
-611.764
-11151.1
-608.822
-10949.4
-605.929
-10748.7
-603.085
-10548.9
-600.291
-10350
-597.545
-10152
-594.849
-9954.91
-592.202
-9758.67
-589.604
-9563.27
-587.054
-9368.7
-584.554
-9174.95
-582.102
-8981.99
-579.699
-8789.82
-577.345
-8598.41
-575.04
-8407.75
-572.783
-8217.82
-570.574
-8028.62
-568.414
-7840.11
-566.303
-7652.29
-564.24
-7465.14
-562.225
-7278.64
-560.258
-7092.78
-558.339
-6907.53
-556.468
-6722.9
-554.646
-6538.85
-552.871
-6355.38
-551.144
-6172.47
-549.464
-5990.09
-547.832
-5808.25
-546.248
-5626.91
-544.712
-5446.07
-543.222
-5265.7
-541.78
-5085.8
-540.386
-4906.35
-539.038
-4727.32
-537.738
-4548.72
-536.485
-4370.51
-535.279
-4192.69
-534.119
-4015.24
-533.007
-3838.14
-531.942
-3661.38
-530.923
-3484.94
-529.951
-3308.81
-529.025
-3132.97
-528.147
-2957.41
-527.315
-2782.11
-526.529
-2607.05
-525.79
-2432.23
-525.097
-2257.61
-524.451
-2083.2
-523.851
-1908.97
-523.298
-1734.91
-522.791
-1561
-522.331
-1387.23
-521.919
-1213.58
-521.555
-1040.03
-521.24
-866.574
-520.974
-693.187
-520.76
-519.854
-520.597
-346.556
-520.488
-173.277
-520.431
-520.424
-1712.87
6949.13
-3424.4
6944.51
-5132.33
6928.54
-6834.42
6901.76
-8528.42
6864.39
-10212.1
6816.36
-11883.1
6757.72
-13539.3
6688.72
-15178.5
6609.89
-16798.6
6521.94
-18397.6
6425.63
-19973.7
6321.72
-21525
6210.83
-23049.9
6093.51
-24546.6
5970.33
-26013.8
5841.91
-27449.9
5708.96
-28853.8
5572.29
-30224.4
5432.74
-31560.8
5291.19
-32862.5
5148.48
-34128.8
5005.42
-35359.5
4862.75
-36554.7
4721.15
-37714.3
4581.16
-38838.7
4443.24
-39928.2
4307.73
-40983.3
4174.89
-42004.7
4044.89
-42993
3917.84
-43949
3793.78
-44873.5
3672.71
-45767.1
3554.57
-46630.9
3439.25
-47465.4
3326.62
-48271.5
3216.52
-49049.8
3108.79
-49801.2
3003.26
-50526
2899.77
-51225
2798.17
-51898.7
2698.31
-52547.6
2600.07
-53172
2503.33
-53772.5
2407.98
-54349.3
2313.96
-54902.9
2221.18
-55433.6
2129.61
-55941.6
2039.22
-56427.3
1949.98
-56891
1861.88
-57332.9
1774.92
-57753.4
1689.1
-58152.8
1604.42
-58531.2
1520.89
-58889.1
1438.51
-59226.8
1357.3
-59544.4
1277.26
-59842.3
1198.41
-60120.9
1120.75
-60380.3
1044.3
-60621
969.056
-60843.2
895.033
-61047.2
822.239
-61233.3
750.679
-61401.9
680.362
-61553.2
611.291
-61687.6
543.474
-61805.4
476.914
-61906.9
411.614
-61992.4
347.579
-62062.2
284.81
-62116.7
223.308
-62156.1
163.075
-62180.8
104.111
-62191.1
46.4141
-62187.4
-10.0159
-62169.9
-65.1815
-62138.9
-119.086
-62094.8
-171.732
-62037.8
-223.126
-61968.4
-273.271
-61886.7
-322.174
-61793.2
-369.841
-61688
-416.279
-61571.6
-461.497
-61444.3
-505.503
-61306.2
-548.306
-61157.8
-589.916
-60999.3
-630.343
-60831
-669.598
-60653.2
-707.693
-60466.2
-744.639
-60270.3
-780.45
-60065.7
-815.138
-59852.7
-848.716
-59631.7
-881.199
-59402.8
-912.6
-59166.4
-942.935
-58922.7
-972.218
-58672
-1000.46
-58414.5
-1027.69
-58150.4
-1053.91
-57880.1
-1079.14
-57603.7
-1103.4
-57321.5
-1126.7
-57033.8
-1149.07
-56740.7
-1170.51
-56442.5
-1191.05
-56139.5
-1210.69
-55831.7
-1229.47
-55519.5
-1247.39
-55203.1
-1264.48
-54882.6
-1280.75
-54558.3
-1296.21
-54230.3
-1310.89
-53898.9
-1324.8
-53564.2
-1337.97
-53226.4
-1350.4
-52885.7
-1362.12
-52542.3
-1373.13
-52196.3
-1383.47
-51847.9
-1393.14
-51497.3
-1402.16
-51144.6
-1410.56
-50790
-1418.34
-50433.6
-1425.51
-50075.6
-1432.11
-49716.1
-1438.14
-49355.3
-1443.62
-48993.2
-1448.57
-48630
-1452.99
-48265.9
-1456.92
-47900.9
-1460.35
-47535.2
-1463.3
-47168.9
-1465.8
-46802.2
-1467.85
-46435
-1469.47
-46067.5
-1470.67
-45699.9
-1471.47
-45332.1
-1471.87
-44964.4
-1471.9
-44596.8
-1471.56
-44229.3
-1470.87
-43862.2
-1469.84
-43495.3
-1468.48
-43129
-1466.8
-42763.1
-1464.82
-42397.8
-1462.55
-42033.1
-1460
-41669.2
-1457.17
-41306.1
-1454.08
-40943.8
-1450.75
-40582.4
-1447.17
-40221.9
-1443.36
-39862.5
-1439.34
-39504.2
-1435.1
-39147
-1430.66
-38790.9
-1426.03
-38436
-1421.21
-38082.5
-1416.22
-37730.2
-1411.07
-37379.2
-1405.75
-37029.6
-1400.28
-36681.4
-1394.67
-36334.7
-1388.93
-35989.5
-1383.06
-35645.7
-1377.06
-35303.5
-1370.95
-34962.8
-1364.73
-34623.8
-1358.42
-34286.3
-1352
-33950.5
-1345.5
-33616.3
-1338.92
-33283.8
-1332.25
-32953
-1325.52
-32623.8
-1318.72
-32296.4
-1311.86
-31970.8
-1304.94
-31646.9
-1297.98
-31324.7
-1290.96
-31004.3
-1283.91
-30685.7
-1276.81
-30368.8
-1269.69
-30053.8
-1262.54
-29740.6
-1255.36
-29429.1
-1248.16
-29119.5
-1240.95
-28811.6
-1233.72
-28505.6
-1226.48
-28201.4
-1219.24
-27899
-1211.99
-27598.4
-1204.74
-27299.7
-1197.5
-27002.7
-1190.26
-26707.6
-1183.03
-26414.2
-1175.81
-26122.7
-1168.61
-25832.9
-1161.43
-25545
-1154.26
-25258.8
-1147.11
-24974.4
-1139.99
-24691.8
-1132.9
-24410.9
-1125.83
-24131.8
-1118.79
-23854.5
-1111.79
-23578.9
-1104.82
-23305
-1097.88
-23032.9
-1090.98
-22762.5
-1084.12
-22493.7
-1077.3
-22226.7
-1070.53
-21961.4
-1063.79
-21697.7
-1057.1
-21435.7
-1050.46
-21175.3
-1043.86
-20916.6
-1037.31
-20659.4
-1030.82
-20403.9
-1024.37
-20150
-1017.97
-19897.7
-1011.62
-19647
-1005.33
-19397.8
-999.097
-19150.1
-992.915
-18904
-986.788
-18659.4
-980.719
-18416.3
-974.706
-18174.7
-968.752
-17934.5
-962.856
-17695.8
-957.019
-17458.6
-951.242
-17222.7
-945.525
-16988.3
-939.869
-16755.3
-934.274
-16523.7
-928.74
-16293.4
-923.269
-16064.4
-917.86
-15836.9
-912.513
-15610.6
-907.23
-15385.6
-902.01
-15161.9
-896.853
-14939.5
-891.761
-14718.3
-886.732
-14498.4
-881.768
-14279.7
-876.868
-14062.2
-872.033
-13845.9
-867.263
-13630.8
-862.557
-13416.8
-857.917
-13203.9
-853.342
-12992.2
-848.832
-12781.6
-844.388
-12572.1
-840.009
-12363.7
-835.695
-12156.3
-831.447
-11949.9
-827.264
-11744.6
-823.147
-11540.3
-819.096
-11337
-815.11
-11134.7
-811.19
-10933.3
-807.335
-10732.8
-803.546
-10533.3
-799.822
-10334.7
-796.164
-10137
-792.571
-9940.22
-789.044
-9744.26
-785.581
-9549.15
-782.184
-9354.87
-778.852
-9161.39
-775.586
-8968.72
-772.384
-8776.83
-769.247
-8585.7
-766.175
-8395.32
-763.168
-8205.68
-760.225
-8016.75
-757.347
-7828.52
-754.533
-7640.97
-751.784
-7454.1
-749.099
-7267.87
-746.478
-7082.28
-743.922
-6897.32
-741.429
-6712.95
-739
-6529.18
-736.635
-6345.98
-734.334
-6163.33
-732.096
-5981.23
-729.922
-5799.65
-727.811
-5618.58
-725.763
-5438
-723.779
-5257.91
-721.858
-5078.27
-720
-4899.08
-718.204
-4720.32
-716.472
-4541.98
-714.802
-4364.04
-713.195
-4186.48
-711.65
-4009.29
-710.168
-3832.46
-708.748
-3655.96
-707.391
-3479.78
-706.095
-3303.91
-704.862
-3128.33
-703.692
-2953.03
-702.583
-2777.99
-701.536
-2603.19
-700.551
-2428.62
-699.628
-2254.27
-698.767
-2080.11
-697.967
-1906.14
-697.23
-1732.34
-696.555
-1558.69
-695.943
-1385.18
-695.393
-1211.78
-694.908
-1038.49
-694.488
-865.292
-694.134
-692.162
-693.848
-519.086
-693.632
-346.046
-693.486
-173.024
-693.411
-693.406
-1692.85
8641.63
-3384.34
8635.64
-5072.55
8616.4
-6755.54
8584.4
-8431.36
8539.85
-10098
8482.67
-11753.6
8412.9
-13396.1
8330.82
-15023.6
8236.97
-16634.2
8132.08
-18225.9
8016.99
-19797.1
7892.47
-21346
7759.2
-22870.7
7617.76
-24369.6
7468.77
-25841
7312.92
-27283.5
7151.02
-28695.7
6983.98
-30076.2
6812.8
-31423.9
6638.49
-32737.9
6462.08
-34017.4
6284.56
-35261.9
6106.88
-36471
5929.88
-37644.5
5754.32
-38782.4
5580.81
-39884.9
5409.87
-40952.2
5241.91
-41984.8
5077.23
-42983.2
4916.07
-43948.2
4758.56
-44880.5
4604.78
-45780.9
4454.72
-46650.1
4308.3
-47489.1
4165.41
-48298.6
4025.88
-49079.4
3889.52
-49832.5
3756.14
-50558.3
3625.53
-51257.8
3497.49
-51931.4
3371.83
-52579.8
3248.37
-53203.5
3126.92
-53803
3007.36
-54378.6
2889.54
-54930.9
2773.37
-55460.1
2658.77
-55966.7
2545.69
-56450.9
2434.09
-56913
2323.95
-57353.3
2215.24
-57772.3
2107.97
-58170
2002.14
-58546.9
1897.75
-58903.3
1794.81
-59239.3
1693.33
-59555.4
1593.32
-59851.8
1494.79
-60128.8
1397.76
-60386.7
1302.23
-60625.9
1208.21
-60846.6
1115.72
-61049.1
1024.77
-61233.8
935.36
-61400.9
847.504
-61550.8
761.208
-61683.8
676.478
-61800.2
593.32
-61900.2
511.738
-61984.4
431.737
-62052.8
353.319
-62106
276.487
-62144.1
201.24
-62167.5
127.58
-62176.6
55.505
-62171.5
-14.9862
-62152.7
-83.8966
-62120.5
-151.23
-62075.2
-216.99
-62017.1
-281.184
-61946.5
-343.817
-61863.7
-404.896
-61769
-464.431
-61662.8
-522.429
-61545.3
-578.901
-61416.8
-633.858
-61277.8
-687.311
-61128.3
-739.272
-60968.8
-789.755
-60799.5
-838.772
-60620.8
-886.339
-60432.9
-932.471
-60236
-977.182
-60030.6
-1020.49
-59816.8
-1062.41
-59594.9
-1102.96
-59365.2
-1142.16
-59128
-1180.03
-58883.6
-1216.58
-58632.1
-1251.84
-58373.8
-1285.82
-58109.1
-1318.55
-57838.1
-1350.03
-57561.1
-1380.31
-57278.3
-1409.39
-56989.9
-1437.29
-56696.3
-1464.05
-56397.6
-1489.67
-56094
-1514.18
-55785.7
-1537.6
-55473
-1559.96
-55156.1
-1581.27
-54835.2
-1601.56
-54510.5
-1620.84
-54182.1
-1639.15
-53850.3
-1656.5
-53515.2
-1672.91
-53177.1
-1688.41
-52836.1
-1703.01
-52492.4
-1716.74
-52146.2
-1729.62
-51797.5
-1741.67
-51446.7
-1752.91
-51093.8
-1763.36
-50739
-1773.05
-50382.4
-1781.99
-50024.2
-1790.2
-49664.6
-1797.7
-49303.6
-1804.52
-48941.4
-1810.66
-48578.2
-1816.16
-48213.9
-1821.03
-47848.9
-1825.29
-47483.2
-1828.96
-47116.9
-1832.05
-46750.1
-1834.58
-46382.9
-1836.58
-46015.4
-1838.05
-45647.8
-1839.02
-45280.1
-1839.5
-44912.4
-1839.51
-44544.9
-1839.06
-44177.5
-1838.17
-43810.4
-1836.86
-43443.7
-1835.14
-43077.4
-1833.02
-42711.7
-1830.53
-42346.5
-1827.67
-41982
-1824.45
-41618.2
-1820.9
-41255.3
-1817.03
-40893.1
-1812.84
-40531.9
-1808.35
-40171.7
-1803.58
-39812.5
-1798.53
-39454.3
-1793.22
-39097.3
-1787.65
-38741.5
-1781.85
-38386.8
-1775.82
-38033.5
-1769.57
-37681.4
-1763.11
-37330.7
-1756.45
-36981.4
-1749.61
-36633.5
-1742.59
-36287
-1735.39
-35942
-1728.04
-35598.6
-1720.54
-35256.6
-1712.89
-34916.3
-1705.11
-34577.5
-1697.21
-34240.3
-1689.18
-33904.8
-1681.05
-33570.9
-1672.81
-33238.7
-1664.48
-32908.2
-1656.06
-32579.4
-1647.55
-32252.3
-1638.97
-31927
-1630.32
-31603.4
-1621.61
-31281.5
-1612.84
-30961.5
-1604.01
-30643.2
-1595.14
-30326.7
-1586.24
-30012
-1577.29
-29699.1
-1568.32
-29388
-1559.32
-29078.7
-1550.3
-28771.2
-1541.26
-28465.5
-1532.21
-28161.6
-1523.15
-27859.6
-1514.09
-27559.4
-1505.03
-27260.9
-1495.98
-26964.3
-1486.93
-26669.5
-1477.9
-26376.5
-1468.87
-26085.3
-1459.87
-25795.9
-1450.89
-25508.3
-1441.93
-25222.5
-1433
-24938.5
-1424.1
-24656.2
-1415.23
-24375.7
-1406.4
-24097
-1397.61
-23820
-1388.85
-23544.7
-1380.14
-23271.2
-1371.47
-22999.4
-1362.85
-22729.4
-1354.28
-22461
-1345.75
-22194.3
-1337.29
-21929.3
-1328.87
-21666
-1320.51
-21404.3
-1312.21
-21144.3
-1303.96
-20885.9
-1295.78
-20629.1
-1287.66
-20374
-1279.6
-20120.4
-1271.61
-19868.4
-1263.68
-19618
-1255.82
-19369.2
-1248.03
-19121.9
-1240.3
-18876.1
-1232.65
-18631.8
-1225.06
-18389
-1217.55
-18147.7
-1210.11
-17907.9
-1202.74
-17669.6
-1195.45
-17432.7
-1188.23
-17197.2
-1181.09
-16963.1
-1174.02
-16730.4
-1167.03
-16499.1
-1160.12
-16269.1
-1153.28
-16040.5
-1146.52
-15813.3
-1139.84
-15587.3
-1133.24
-15362.7
-1126.72
-15139.3
-1120.28
-14917.2
-1113.92
-14696.4
-1107.63
-14476.7
-1101.43
-14258.4
-1095.31
-14041.2
-1089.27
-13825.2
-1083.31
-13610.4
-1077.43
-13396.7
-1071.63
-13184.2
-1065.92
-12972.8
-1060.28
-12762.5
-1054.73
-12553.2
-1049.26
-12345.1
-1043.87
-12138
-1038.57
-11932
-1033.34
-11727
-1028.2
-11523
-1023.14
-11320
-1018.16
-11117.9
-1013.26
-10916.8
-1008.44
-10716.7
-1003.71
-10517.5
-999.058
-10319.2
-994.488
-10121.8
-989.999
-9925.26
-985.592
-9729.59
-981.267
-9534.77
-977.024
-9340.77
-972.861
-9147.59
-968.78
-8955.21
-964.781
-8763.6
-960.862
-8572.76
-957.024
-8382.66
-953.267
-8193.3
-949.591
-8004.66
-945.996
-7816.71
-942.481
-7629.44
-939.047
-7442.85
-935.693
-7256.9
-932.419
-7071.59
-929.226
-6886.9
-926.112
-6702.82
-923.078
-6519.32
-920.123
-6336.39
-917.249
-6154.02
-914.453
-5972.19
-911.737
-5790.89
-909.1
-5610.09
-906.543
-5429.79
-904.064
-5249.96
-901.664
-5070.6
-899.342
-4891.68
-897.1
-4713.19
-894.935
-4535.12
-892.85
-4357.44
-890.842
-4180.15
-888.912
-4003.23
-887.061
-3826.66
-885.288
-3650.43
-883.592
-3474.52
-881.974
-3298.92
-880.434
-3123.6
-878.971
-2948.56
-877.586
-2773.79
-876.278
-2599.25
-875.048
-2424.95
-873.895
-2250.86
-872.819
-2076.97
-871.821
-1903.26
-870.9
-1729.72
-870.056
-1556.33
-869.291
-1383.08
-868.605
-1209.95
-867.999
-1036.92
-867.473
-863.983
-867.031
-691.115
-866.675
-518.301
-866.405
-345.522
-866.223
-172.76
-866.131
-866.124
-1670.77
10312
-3340.21
10304.7
-5006.73
10282.5
-6668.68
10245.9
-8324.4
10195.1
-9972.22
10130
-11610.5
10050.7
-13237.4
9957.33
-14851.4
9850.48
-16450.7
9730.89
-18033.6
9599.38
-19598.3
9456.72
-21143.2
9303.58
-22666.5
9140.56
-24166.5
8968.28
-25641.6
8787.45
-27090
8598.94
-28510.3
8403.74
-29900.9
8202.92
-31260.5
7997.63
-32587.9
7789.03
-33882.1
7578.27
-35142.1
7366.46
-36367.3
7154.64
-37557.1
6943.74
-38711.2
6734.56
-39829.5
6527.82
-40912.1
6324.1
-41959
6123.88
-42970.8
5927.56
-43947.9
5735.41
-44891
5547.63
-45800.8
5364.31
-46678.1
5185.45
-47523.9
5010.97
-48338.9
4840.74
-49124.1
4674.58
-49880.4
4512.27
-50608.6
4353.59
-51309.5
4198.28
-51983.9
4046.11
-52632.5
3896.82
-53255.9
3750.19
-53854.6
3606.01
-54429.3
3464.1
-54980.3
3324.3
-55508.1
3186.49
-56013
3050.6
-56495.5
2916.54
-56955.9
2784.27
-57394.5
2653.77
-57811.6
2525.03
-58207.5
2398.02
-58582.6
2272.77
-58937.1
2149.26
-59271.3
2027.51
-59585.5
1907.53
-59880.1
1789.33
-60155.3
1672.93
-60411.4
1558.33
-60648.7
1445.56
-60867.6
1334.62
-61068.3
1225.51
-61251.2
1118.27
-61416.6
1012.89
-61564.8
909.378
-61696
807.75
-61810.7
708.009
-61909.1
610.16
-61991.5
514.209
-62058.3
420.159
-62109.8
328.012