/*--------------------------------*- C++ -*----------------------------------*\
| =========                 |                                                 |
| \\      /  F ield         | OpenFOAM: The Open Source CFD Toolbox           |
|  \\    /   O peration     | Version:  2212                                  |
|   \\  /    A nd           | Website:  www.openfoam.com                      |
|    \\/     M anipulation  |                                                 |
\*---------------------------------------------------------------------------*/
FoamFile
{
    version     2.0;
    format      ascii;
    arch        "LSB;label=32;scalar=64";
    class       volScalarField;
    location    "730";
    object      p_rgh;
}
// * * * * * * * * * * * * * * * * * * * * * * * * * * * * * * * * * * * * * //

dimensions      [1 -1 -2 0 0 0 0];

internalField   nonuniform List<scalar> 
204800
(
48.9842
48.9847
48.9807
48.9727
48.9615
48.9468
48.9286
48.9069
48.8819
48.8536
48.8223
48.7881
48.7509
48.711
48.6684
48.6231
48.5751
48.5246
48.4714
48.4158
48.3576
48.297
48.234
48.1685
48.1007
48.0306
47.9583
47.8837
47.807
47.7281
47.6471
47.564
47.479
47.3919
47.303
47.2122
47.1195
47.0251
46.9289
46.8311
46.7316
46.6305
46.528
46.4239
46.3184
46.2115
46.1033
45.9939
45.8832
45.7713
45.6583
45.5443
45.4292
45.3132
45.1963
45.0785
44.9599
44.8405
44.7205
44.5998
44.4786
44.3568
44.2345
44.1118
43.9887
43.8652
43.7415
43.6176
43.4935
43.3692
43.2449
43.1205
42.9961
42.8718
42.7476
42.6236
42.4997
42.3761
42.2527
42.1297
42.007
41.8848
41.7629
41.6416
41.5208
41.4006
41.2809
41.1619
41.0436
40.926
40.8092
40.6931
40.5778
40.4634
40.3498
40.2372
40.1255
40.0147
39.9049
39.7962
39.6885
39.5818
39.4763
39.3719
39.2686
39.1664
39.0654
38.9656
38.8671
38.7697
38.6736
38.5788
38.4852
38.393
38.302
38.2124
38.124
38.0371
37.9514
37.8671
37.7842
37.7027
37.6225
37.5437
37.4663
37.3903
37.3157
37.2425
37.1707
37.1002
37.0312
36.9636
36.8974
36.8326
36.7692
36.7071
36.6465
36.5873
36.5294
36.4729
36.4178
36.3641
36.3117
36.2607
36.211
36.1627
36.1157
36.07
36.0256
35.9826
35.9408
35.9003
35.8611
35.8231
35.7864
35.7509
35.7166
35.6836
35.6517
35.6211
35.5916
35.5632
35.536
35.51
35.485
35.4612
35.4384
35.4168
35.3962
35.3766
35.358
35.3405
35.324
35.3084
35.2938
35.2802
35.2674
35.2557
35.2448
35.2348
35.2256
35.2174
35.2099
35.2033
35.1975
35.1925
35.1882
35.1847
35.182
35.18
35.1786
35.178
35.1781
35.1788
35.1801
35.1821
35.1847
35.188
35.1917
35.1961
35.201
35.2064
35.2124
35.2189
35.2258
35.2333
35.2412
35.2495
35.2583
35.2675
35.2771
35.2871
35.2975
35.3082
35.3193
35.3308
35.3425
35.3546
35.3669
35.3795
35.3924
35.4056
35.419
35.4326
35.4465
35.4605
35.4748
35.4892
35.5039
35.5186
35.5336
35.5486
35.5638
35.5791
35.5945
35.61
35.6256
35.6413
35.657
35.6728
35.6887
35.7045
35.7204
35.7363
35.7523
35.7682
35.7841
35.8
35.8158
35.8316
35.8474
35.8632
35.8788
35.8944
35.9099
35.9254
35.9407
35.956
35.9711
35.9862
36.0011
36.0159
36.0305
36.045
36.0594
36.0736
36.0877
36.1016
36.1153
36.1289
36.1423
36.1555
36.1685
36.1813
36.1939
36.2063
36.2185
36.2305
36.2423
36.2538
36.2651
36.2762
36.2871
36.2977
36.308
36.3181
36.328
36.3376
36.347
36.3561
36.3649
36.3735
36.3818
36.3898
36.3976
36.405
36.4122
36.4191
36.4258
36.4321
36.4382
36.4439
36.4494
36.4546
36.4595
36.464
36.4683
36.4723
36.476
36.4794
36.4824
36.4852
36.4877
36.4898
36.4917
36.4932
36.4945
36.4954
36.496
36.4963
48.9124
48.9094
48.9024
48.8915
48.8772
48.8596
48.839
48.8154
48.789
48.7598
48.7279
48.6932
48.6558
48.6157
48.573
48.5277
48.4798
48.4292
48.3762
48.3206
48.2625
48.2019
48.139
48.0736
48.006
47.936
47.8637
47.7893
47.7127
47.6339
47.553
47.4701
47.3852
47.2983
47.2095
47.1189
47.0264
46.9321
46.8361
46.7384
46.6391
46.5383
46.4359
46.332
46.2267
46.12
46.012
45.9027
45.7922
45.6805
45.5678
45.4539
45.3391
45.2232
45.1065
44.9889
44.8706
44.7514
44.6316
44.5111
44.3901
44.2685
44.1465
44.024
43.9011
43.7779
43.6544
43.5307
43.4068
43.2827
43.1586
43.0345
42.9103
42.7863
42.6623
42.5384
42.4148
42.2914
42.1683
42.0455
41.923
41.801
41.6794
41.5583
41.4377
41.3177
41.1983
41.0795
40.9614
40.844
40.7274
40.6115
40.4964
40.3822
40.2689
40.1564
40.0449
39.9344
39.8248
39.7163
39.6088
39.5023
39.397
39.2927
39.1896
39.0877
38.9869
38.8873
38.7889
38.6918
38.5958
38.5012
38.4078
38.3157
38.2249
38.1355
38.0473
37.9605
37.875
37.7909
37.7081
37.6267
37.5467
37.4681
37.3908
37.315
37.2405
37.1674
37.0958
37.0255
36.9566
36.8891
36.8231
36.7584
36.6951
36.6332
36.5727
36.5136
36.4558
36.3995
36.3445
36.2908
36.2386
36.1877
36.1381
36.0898
36.0429
35.9973
35.9531
35.9101
35.8684
35.828
35.7888
35.7509
35.7143
35.6789
35.6447
35.6117
35.5799
35.5494
35.5199
35.4917
35.4645
35.4385
35.4136
35.3899
35.3672
35.3455
35.325
35.3054
35.2869
35.2694
35.2529
35.2374
35.2229
35.2093
35.1966
35.1848
35.174
35.164
35.1549
35.1466
35.1392
35.1326
35.1268
35.1218
35.1176
35.1141
35.1114
35.1094
35.1081
35.1075
35.1075
35.1083
35.1096
35.1116
35.1142
35.1174
35.1212
35.1256
35.1305
35.1359
35.1419
35.1484
35.1553
35.1628
35.1707
35.179
35.1878
35.197
35.2066
35.2166
35.2269
35.2377
35.2487
35.2601
35.2719
35.2839
35.2962
35.3088
35.3217
35.3349
35.3483
35.3619
35.3757
35.3898
35.404
35.4184
35.433
35.4478
35.4627
35.4777
35.4929
35.5082
35.5235
35.539
35.5546
35.5703
35.586
35.6017
35.6175
35.6334
35.6492
35.6651
35.681
35.6969
35.7128
35.7287
35.7445
35.7603
35.776
35.7917
35.8074
35.823
35.8385
35.8539
35.8692
35.8844
35.8995
35.9146
35.9294
35.9442
35.9588
35.9733
35.9877
36.0019
36.0159
36.0298
36.0435
36.0571
36.0704
36.0836
36.0966
36.1094
36.122
36.1344
36.1465
36.1585
36.1702
36.1818
36.1931
36.2041
36.215
36.2255
36.2359
36.246
36.2558
36.2654
36.2748
36.2839
36.2927
36.3012
36.3095
36.3175
36.3253
36.3327
36.3399
36.3468
36.3534
36.3598
36.3658
36.3716
36.377
36.3822
36.3871
36.3916
36.3959
36.3999
36.4036
36.4069
36.41
36.4128
36.4152
36.4174
36.4192
36.4208
36.422
36.4229
36.4236
36.4239
48.897
48.8934
48.8861
48.8751
48.8607
48.8431
48.8225
48.7989
48.7725
48.7433
48.7113
48.6765
48.6391
48.599
48.5563
48.5109
48.4629
48.4123
48.3592
48.3036
48.2454
48.1849
48.1219
48.0565
47.9888
47.9188
47.8465
47.7721
47.6954
47.6166
47.5357
47.4528
47.3679
47.281
47.1922
47.1015
47.009
46.9147
46.8187
46.721
46.6217
46.5208
46.4184
46.3145
46.2092
46.1025
45.9945
45.8852
45.7747
45.663
45.5502
45.4364
45.3215
45.2057
45.0889
44.9714
44.853
44.7338
44.614
44.4935
44.3725
44.2509
44.1288
44.0063
43.8835
43.7602
43.6368
43.513
43.3891
43.2651
43.141
43.0169
42.8927
42.7686
42.6447
42.5208
42.3972
42.2738
42.1507
42.0279
41.9054
41.7834
41.6618
41.5407
41.4201
41.3001
41.1807
41.0619
40.9438
40.8265
40.7098
40.594
40.4789
40.3647
40.2514
40.139
40.0275
39.9169
39.8074
39.6989
39.5914
39.4849
39.3796
39.2754
39.1723
39.0703
38.9696
38.87
38.7716
38.6745
38.5786
38.484
38.3906
38.2985
38.2078
38.1183
38.0302
37.9434
37.8579
37.7738
37.6911
37.6097
37.5297
37.4511
37.3739
37.298
37.2236
37.1505
37.0789
37.0086
36.9398
36.8723
36.8063
36.7416
36.6783
36.6165
36.556
36.4969
36.4392
36.3828
36.3279
36.2743
36.222
36.1711
36.1216
36.0734
36.0265
35.9809
35.9367
35.8937
35.852
35.8116
35.7725
35.7347
35.698
35.6627
35.6285
35.5955
35.5638
35.5332
35.5038
35.4756
35.4485
35.4225
35.3976
35.3739
35.3512
35.3296
35.309
35.2895
35.2711
35.2536
35.2371
35.2216
35.2071
35.1935
35.1808
35.1691
35.1583
35.1483
35.1392
35.131
35.1236
35.117
35.1113
35.1063
35.1021
35.0986
35.0959
35.0939
35.0926
35.092
35.0921
35.0928
35.0942
35.0962
35.0989
35.1021
35.1059
35.1103
35.1152
35.1206
35.1266
35.1331
35.1401
35.1475
35.1554
35.1638
35.1726
35.1818
35.1914
35.2014
35.2118
35.2225
35.2336
35.245
35.2568
35.2688
35.2812
35.2938
35.3067
35.3198
35.3332
35.3469
35.3607
35.3748
35.389
35.4034
35.4181
35.4328
35.4477
35.4628
35.478
35.4933
35.5086
35.5241
35.5397
35.5554
35.5711
35.5869
35.6027
35.6185
35.6344
35.6503
35.6662
35.6821
35.698
35.7139
35.7297
35.7455
35.7613
35.777
35.7926
35.8082
35.8237
35.8391
35.8544
35.8697
35.8848
35.8998
35.9147
35.9295
35.9441
35.9586
35.973
35.9872
36.0012
36.0151
36.0288
36.0424
36.0557
36.0689
36.0819
36.0947
36.1073
36.1197
36.1319
36.1438
36.1556
36.1671
36.1784
36.1895
36.2003
36.2109
36.2212
36.2313
36.2412
36.2508
36.2601
36.2692
36.278
36.2866
36.2949
36.3029
36.3106
36.3181
36.3253
36.3322
36.3388
36.3451
36.3512
36.3569
36.3624
36.3676
36.3724
36.377
36.3813
36.3853
36.3889
36.3923
36.3954
36.3982
36.4006
36.4028
36.4046
36.4062
36.4074
36.4083
36.4089
36.4093
48.8281
48.824
48.8156
48.8035
48.7877
48.7688
48.7469
48.7223
48.695
48.6651
48.6325
48.5974
48.5596
48.5193
48.4763
48.4308
48.3827
48.3321
48.2789
48.2233
48.1652
48.1046
48.0416
47.9763
47.9086
47.8386
47.7664
47.692
47.6154
47.5367
47.4559
47.373
47.2881
47.2013
47.1126
47.022
46.9296
46.8354
46.7395
46.6419
46.5427
46.4419
46.3396
46.2358
46.1306
46.024
45.9161
45.8069
45.6965
45.585
45.4723
45.3586
45.2438
45.1281
45.0115
44.8941
44.7758
44.6568
44.5371
44.4168
44.2959
44.1744
44.0525
43.9301
43.8074
43.6843
43.561
43.4374
43.3137
43.1898
43.0658
42.9418
42.8178
42.6939
42.5701
42.4464
42.3229
42.1996
42.0767
41.954
41.8317
41.7099
41.5884
41.4675
41.3471
41.2272
41.1079
40.9893
40.8714
40.7542
40.6377
40.522
40.4071
40.293
40.1799
40.0676
39.9562
39.8459
39.7365
39.6281
39.5207
39.4145
39.3093
39.2052
39.1022
39.0004
38.8998
38.8004
38.7022
38.6052
38.5094
38.4149
38.3217
38.2298
38.1391
38.0498
37.9618
37.8751
37.7898
37.7059
37.6232
37.542
37.4621
37.3837
37.3065
37.2308
37.1565
37.0836
37.012
36.9419
36.8732
36.8058
36.7399
36.6753
36.6122
36.5504
36.4901
36.4311
36.3735
36.3172
36.2624
36.2089
36.1567
36.1059
36.0565
36.0083
35.9615
35.9161
35.8719
35.829
35.7875
35.7472
35.7081
35.6703
35.6338
35.5985
35.5644
35.5315
35.4999
35.4694
35.44
35.4118
35.3848
35.3589
35.3341
35.3104
35.2878
35.2663
35.2458
35.2263
35.2079
35.1905
35.1741
35.1586
35.1441
35.1306
35.118
35.1063
35.0955
35.0856
35.0766
35.0684
35.061
35.0545
35.0487
35.0438
35.0396
35.0362
35.0335
35.0316
35.0303
35.0297
35.0299
35.0306
35.032
35.0341
35.0367
35.04
35.0438
35.0482
35.0531
35.0586
35.0646
35.0711
35.0781
35.0856
35.0935
35.1019
35.1107
35.1199
35.1295
35.1395
35.1499
35.1607
35.1718
35.1832
35.1949
35.207
35.2193
35.232
35.2449
35.258
35.2714
35.285
35.2989
35.3129
35.3272
35.3416
35.3562
35.371
35.3859
35.4009
35.4161
35.4314
35.4468
35.4623
35.4779
35.4935
35.5092
35.525
35.5408
35.5567
35.5725
35.5884
35.6043
35.6202
35.6361
35.6519
35.6678
35.6836
35.6993
35.715
35.7307
35.7462
35.7617
35.7771
35.7924
35.8077
35.8228
35.8378
35.8527
35.8674
35.8821
35.8966
35.9109
35.9251
35.9391
35.953
35.9667
35.9802
35.9936
36.0068
36.0197
36.0325
36.0451
36.0575
36.0697
36.0816
36.0934
36.1049
36.1162
36.1272
36.138
36.1486
36.159
36.1691
36.1789
36.1885
36.1978
36.2069
36.2157
36.2243
36.2326
36.2406
36.2483
36.2558
36.2629
36.2698
36.2764
36.2828
36.2888
36.2946
36.3
36.3052
36.31
36.3146
36.3189
36.3229
36.3265
36.3299
36.333
36.3357
36.3382
36.3404
36.3422
36.3438
36.345
36.3459
36.3465
36.3468
48.8008
48.7967
48.7884
48.7763
48.7607
48.7419
48.7202
48.6956
48.6683
48.6384
48.6058
48.5706
48.5328
48.4923
48.4493
48.4037
48.3555
48.3048
48.2516
48.1958
48.1376
48.077
48.014
47.9485
47.8808
47.8108
47.7385
47.664
47.5874
47.5086
47.4278
47.3449
47.26
47.1731
47.0843
46.9937
46.9012
46.807
46.711
46.6134
46.5142
46.4133
46.311
46.2072
46.1019
45.9953
45.8874
45.7782
45.6677
45.5561
45.4434
45.3297
45.2149
45.0992
44.9826
44.8651
44.7468
44.6278
44.5081
44.3877
44.2668
44.1453
44.0233
43.901
43.7782
43.6551
43.5318
43.4082
43.2844
43.1605
43.0365
42.9125
42.7885
42.6646
42.5407
42.417
42.2935
42.1703
42.0473
41.9246
41.8024
41.6805
41.559
41.4381
41.3177
41.1978
41.0786
40.9599
40.842
40.7248
40.6083
40.4926
40.3777
40.2637
40.1505
40.0382
39.9269
39.8165
39.7072
39.5988
39.4915
39.3852
39.28
39.176
39.073
38.9713
38.8707
38.7712
38.673
38.5761
38.4803
38.3859
38.2927
38.2008
38.1102
38.0209
37.9329
37.8463
37.761
37.677
37.5945
37.5133
37.4334
37.355
37.2779
37.2022
37.1279
37.055
36.9835
36.9135
36.8448
36.7774
36.7115
36.647
36.5839
36.5222
36.4619
36.4029
36.3454
36.2892
36.2343
36.1809
36.1288
36.078
36.0286
35.9805
35.9338
35.8884
35.8442
35.8014
35.7599
35.7196
35.6806
35.6429
35.6064
35.5711
35.5371
35.5043
35.4726
35.4422
35.4129
35.3847
35.3577
35.3319
35.3071
35.2835
35.2609
35.2394
35.219
35.1996
35.1812
35.1638
35.1474
35.132
35.1176
35.1041
35.0915
35.0799
35.0691
35.0593
35.0503
35.0421
35.0348
35.0283
35.0226
35.0177
35.0136
35.0102
35.0075
35.0056
35.0044
35.0039
35.004
35.0048
35.0063
35.0083
35.011
35.0143
35.0182
35.0226
35.0276
35.0331
35.0391
35.0456
35.0527
35.0602
35.0681
35.0765
35.0853
35.0946
35.1042
35.1143
35.1247
35.1355
35.1466
35.1581
35.1698
35.1819
35.1943
35.2069
35.2199
35.233
35.2465
35.2601
35.274
35.2881
35.3023
35.3168
35.3314
35.3462
35.3611
35.3762
35.3914
35.4067
35.4221
35.4376
35.4532
35.4689
35.4846
35.5004
35.5162
35.5321
35.548
35.5639
35.5798
35.5957
35.6116
35.6275
35.6433
35.6591
35.6749
35.6906
35.7063
35.7218
35.7374
35.7528
35.7681
35.7833
35.7985
35.8135
35.8284
35.8432
35.8578
35.8723
35.8866
35.9009
35.9149
35.9288
35.9425
35.956
35.9694
35.9826
35.9956
36.0084
36.021
36.0333
36.0455
36.0575
36.0692
36.0808
36.092
36.1031
36.1139
36.1245
36.1349
36.145
36.1548
36.1644
36.1738
36.1829
36.1917
36.2002
36.2085
36.2165
36.2243
36.2317
36.2389
36.2458
36.2524
36.2587
36.2648
36.2705
36.276
36.2812
36.286
36.2906
36.2949
36.2989
36.3025
36.3059
36.309
36.3117
36.3142
36.3164
36.3182
36.3197
36.321
36.3219
36.3225
36.3228
48.7369
48.7327
48.724
48.7116
48.6954
48.6761
48.6538
48.6288
48.601
48.5706
48.5376
48.5021
48.4639
48.4233
48.38
48.3342
48.2859
48.2351
48.1817
48.1259
48.0676
48.0069
47.9439
47.8784
47.8107
47.7406
47.6683
47.5938
47.5172
47.4384
47.3576
47.2747
47.1898
47.1029
47.0142
46.9235
46.8311
46.7369
46.641
46.5434
46.4442
46.3434
46.2411
46.1373
46.0321
45.9255
45.8176
45.7084
45.5981
45.4865
45.3739
45.2602
45.1455
45.0298
44.9132
44.7958
44.6776
44.5586
44.439
44.3187
44.1978
44.0764
43.9545
43.8322
43.7095
43.5865
43.4632
43.3397
43.216
43.0922
42.9683
42.8444
42.7205
42.5966
42.4729
42.3492
42.2258
42.1027
41.9798
41.8572
41.735
41.6132
41.4919
41.371
41.2507
41.1309
41.0118
40.8933
40.7754
40.6583
40.5419
40.4263
40.3115
40.1976
40.0845
39.9724
39.8611
39.7509
39.6416
39.5333
39.4261
39.3199
39.2149
39.1109
39.0081
38.9064
38.8059
38.7066
38.6085
38.5117
38.416
38.3217
38.2286
38.1368
38.0463
37.9571
37.8692
37.7827
37.6975
37.6137
37.5312
37.4501
37.3704
37.292
37.2151
37.1395
37.0653
36.9925
36.9211
36.8511
36.7826
36.7154
36.6496
36.5851
36.5221
36.4605
36.4003
36.3414
36.284
36.2279
36.1731
36.1198
36.0678
36.0171
35.9678
35.9198
35.8732
35.8278
35.7838
35.741
35.6996
35.6594
35.6205
35.5829
35.5465
35.5113
35.4773
35.4446
35.413
35.3826
35.3534
35.3254
35.2985
35.2727
35.248
35.2244
35.2019
35.1805
35.1601
35.1408
35.1225
35.1052
35.0889
35.0735
35.0592
35.0457
35.0332
35.0217
35.011
35.0012
34.9922
34.9841
34.9769
34.9704
34.9648
34.9599
34.9559
34.9525
34.9499
34.9481
34.9469
34.9464
34.9466
34.9474
34.9489
34.9511
34.9538
34.9571
34.961
34.9655
34.9705
34.976
34.9821
34.9887
34.9957
35.0033
35.0113
35.0197
35.0286
35.0378
35.0475
35.0576
35.068
35.0788
35.09
35.1015
35.1133
35.1254
35.1378
35.1505
35.1634
35.1766
35.1901
35.2037
35.2176
35.2317
35.246
35.2605
35.2751
35.2899
35.3049
35.32
35.3352
35.3505
35.3659
35.3814
35.397
35.4127
35.4285
35.4443
35.4601
35.476
35.4919
35.5078
35.5237
35.5396
35.5555
35.5714
35.5873
35.6031
35.6189
35.6346
35.6502
35.6658
35.6813
35.6968
35.7121
35.7273
35.7425
35.7575
35.7724
35.7872
35.8018
35.8163
35.8307
35.8449
35.8589
35.8728
35.8865
35.9001
35.9134
35.9266
35.9396
35.9524
35.965
35.9774
35.9896
36.0015
36.0133
36.0248
36.0361
36.0471
36.058
36.0686
36.0789
36.089
36.0989
36.1085
36.1178
36.1269
36.1357
36.1442
36.1525
36.1605
36.1683
36.1757
36.1829
36.1898
36.1964
36.2028
36.2088
36.2146
36.22
36.2252
36.2301
36.2346
36.2389
36.2429
36.2466
36.2499
36.253
36.2558
36.2582
36.2604
36.2622
36.2638
36.265
36.2659
36.2665
36.2669
48.7023
48.6982
48.6896
48.6774
48.6615
48.6424
48.6203
48.5953
48.5676
48.5372
48.5042
48.4686
48.4304
48.3896
48.3463
48.3004
48.2519
48.201
48.1475
48.0916
48.0332
47.9724
47.9092
47.8437
47.7758
47.7057
47.6333
47.5588
47.482
47.4032
47.3223
47.2393
47.1543
47.0674
46.9786
46.8879
46.7954
46.7011
46.6051
46.5074
46.4081
46.3073
46.2049
46.101
45.9958
45.8891
45.7812
45.672
45.5615
45.4499
45.3372
45.2235
45.1087
44.993
44.8763
44.7589
44.6406
44.5216
44.4019
44.2815
44.1606
44.0392
43.9172
43.7949
43.6721
43.5491
43.4258
43.3022
43.1785
43.0546
42.9307
42.8067
42.6828
42.5589
42.4351
42.3114
42.188
42.0648
41.9419
41.8193
41.6971
41.5753
41.4539
41.333
41.2127
41.0929
40.9737
40.8552
40.7374
40.6202
40.5038
40.3882
40.2734
40.1595
40.0464
39.9343
39.823
39.7128
39.6035
39.4953
39.388
39.2819
39.1768
39.0729
38.9701
38.8684
38.768
38.6687
38.5706
38.4738
38.3782
38.2838
38.1908
38.099
38.0085
37.9194
37.8315
37.7451
37.6599
37.5761
37.4937
37.4126
37.3329
37.2546
37.1777
37.1022
37.028
36.9553
36.8839
36.814
36.7454
36.6783
36.6125
36.5482
36.4852
36.4237
36.3635
36.3047
36.2473
36.1912
36.1366
36.0833
36.0313
35.9807
35.9314
35.8835
35.8369
35.7916
35.7477
35.705
35.6636
35.6235
35.5847
35.5471
35.5107
35.4756
35.4417
35.409
35.3775
35.3472
35.3181
35.2901
35.2632
35.2375
35.2129
35.1894
35.1669
35.1456
35.1253
35.106
35.0877
35.0705
35.0543
35.039
35.0247
35.0113
34.9989
34.9873
34.9767
34.967
34.9581
34.9501
34.9429
34.9365
34.9309
34.9261
34.9221
34.9188
34.9163
34.9144
34.9133
34.9129
34.9131
34.9141
34.9156
34.9178
34.9206
34.9239
34.9279
34.9324
34.9375
34.9431
34.9492
34.9558
34.9629
34.9705
34.9785
34.987
34.9959
35.0053
35.015
35.0251
35.0356
35.0464
35.0576
35.0691
35.081
35.0931
35.1056
35.1183
35.1313
35.1445
35.158
35.1717
35.1856
35.1998
35.2141
35.2286
35.2433
35.2581
35.2731
35.2882
35.3035
35.3188
35.3343
35.3498
35.3655
35.3812
35.397
35.4128
35.4287
35.4446
35.4605
35.4764
35.4924
35.5083
35.5242
35.5401
35.556
35.5719
35.5877
35.6034
35.6191
35.6347
35.6502
35.6657
35.681
35.6963
35.7114
35.7265
35.7414
35.7562
35.7709
35.7854
35.7998
35.814
35.828
35.8419
35.8557
35.8692
35.8826
35.8958
35.9088
35.9216
35.9342
35.9466
35.9588
35.9708
35.9826
35.9941
36.0054
36.0165
36.0273
36.0379
36.0483
36.0584
36.0682
36.0779
36.0872
36.0963
36.1051
36.1137
36.122
36.13
36.1377
36.1452
36.1524
36.1593
36.1659
36.1722
36.1783
36.184
36.1895
36.1947
36.1996
36.2041
36.2084
36.2124
36.2161
36.2194
36.2225
36.2253
36.2277
36.2299
36.2318
36.2333
36.2345
36.2355
36.2361
36.2364
48.6429
48.6387
48.6302
48.6179
48.6018
48.5826
48.5603
48.5351
48.5071
48.4765
48.4432
48.4073
48.3689
48.3279
48.2843
48.2382
48.1896
48.1385
48.0849
48.0289
47.9704
47.9095
47.8462
47.7806
47.7127
47.6425
47.57
47.4954
47.4186
47.3397
47.2587
47.1757
47.0907
47.0037
46.9148
46.8241
46.7316
46.6373
46.5412
46.4435
46.3442
46.2433
46.1409
46.0371
45.9318
45.8251
45.7171
45.6079
45.4975
45.3858
45.2731
45.1593
45.0446
44.9288
44.8122
44.6947
44.5764
44.4574
44.3377
44.2174
44.0965
43.975
43.8531
43.7308
43.608
43.485
43.3617
43.2382
43.1144
42.9906
42.8667
42.7427
42.6188
42.4949
42.3712
42.2476
42.1242
42.001
41.8781
41.7556
41.6334
41.5116
41.3903
41.2694
41.1491
41.0294
40.9103
40.7918
40.674
40.5569
40.4406
40.325
40.2103
40.0964
39.9834
39.8713
39.7601
39.6499
39.5407
39.4325
39.3254
39.2193
39.1143
39.0105
38.9077
38.8061
38.7057
38.6065
38.5085
38.4118
38.3163
38.222
38.129
38.0373
37.9469
37.8579
37.7701
37.6837
37.5987
37.515
37.4326
37.3516
37.272
37.1938
37.117
37.0415
36.9675
36.8948
36.8236
36.7537
36.6853
36.6182
36.5526
36.4883
36.4254
36.364
36.3039
36.2452
36.1879
36.1319
36.0773
36.0241
35.9723
35.9218
35.8726
35.8248
35.7783
35.7331
35.6892
35.6466
35.6053
35.5653
35.5266
35.4891
35.4528
35.4178
35.384
35.3514
35.32
35.2898
35.2607
35.2328
35.206
35.1804
35.1559
35.1325
35.1101
35.0888
35.0686
35.0494
35.0313
35.0141
34.9979
34.9827
34.9685
34.9552
34.9429
34.9314
34.9209
34.9112
34.9024
34.8944
34.8873
34.881
34.8755
34.8708
34.8668
34.8636
34.8611
34.8594
34.8583
34.858
34.8583
34.8593
34.8609
34.8631
34.866
34.8694
34.8734
34.878
34.8831
34.8888
34.8949
34.9016
34.9088
34.9164
34.9245
34.933
34.942
34.9514
34.9612
34.9713
34.9819
34.9927
35.004
35.0156
35.0274
35.0396
35.0521
35.0649
35.0779
35.0912
35.1047
35.1185
35.1324
35.1466
35.161
35.1755
35.1902
35.2051
35.2201
35.2353
35.2505
35.2659
35.2814
35.297
35.3127
35.3284
35.3442
35.3601
35.3759
35.3919
35.4078
35.4238
35.4398
35.4557
35.4717
35.4876
35.5035
35.5194
35.5352
35.5509
35.5667
35.5823
35.5978
35.6133
35.6287
35.644
35.6591
35.6742
35.6891
35.7039
35.7186
35.7331
35.7475
35.7618
35.7758
35.7897
35.8035
35.8171
35.8305
35.8437
35.8567
35.8695
35.8821
35.8945
35.9067
35.9187
35.9305
35.942
35.9533
35.9644
35.9753
35.9859
35.9962
36.0064
36.0162
36.0258
36.0352
36.0443
36.0531
36.0617
36.07
36.078
36.0858
36.0932
36.1004
36.1073
36.1139
36.1203
36.1263
36.1321
36.1376
36.1427
36.1476
36.1522
36.1565
36.1605
36.1641
36.1675
36.1706
36.1734
36.1758
36.178
36.1798
36.1814
36.1826
36.1835
36.1842
36.1845
48.6039
48.5998
48.5914
48.5793
48.5635
48.5445
48.5223
48.4973
48.4694
48.4388
48.4055
48.3695
48.331
48.2899
48.2462
48.2
48.1513
48.1001
48.0463
47.9901
47.9315
47.8705
47.8071
47.7413
47.6733
47.603
47.5304
47.4557
47.3787
47.2997
47.2186
47.1355
47.0504
46.9633
46.8743
46.7835
46.6908
46.5964
46.5003
46.4025
46.3031
46.2021
46.0996
45.9956
45.8902
45.7835
45.6754
45.5661
45.4555
45.3438
45.231
45.1171
45.0023
44.8864
44.7697
44.6521
44.5338
44.4147
44.2949
44.1745
44.0535
43.9319
43.8099
43.6875
43.5647
43.4416
43.3182
43.1946
43.0708
42.9469
42.8229
42.6989
42.5749
42.451
42.3272
42.2035
42.0801
41.9568
41.8339
41.7113
41.5891
41.4672
41.3459
41.225
41.1047
40.9849
40.8658
40.7472
40.6294
40.5123
40.3959
40.2804
40.1656
40.0517
39.9387
39.8266
39.7154
39.6052
39.496
39.3878
39.2806
39.1746
39.0696
38.9657
38.863
38.7614
38.661
38.5618
38.4639
38.3671
38.2716
38.1774
38.0844
37.9928
37.9024
37.8134
37.7256
37.6393
37.5542
37.4706
37.3883
37.3073
37.2278
37.1496
37.0728
36.9974
36.9234
36.8508
36.7796
36.7098
36.6414
36.5744
36.5088
36.4446
36.3818
36.3204
36.2604
36.2018
36.1445
36.0886
36.0341
35.981
35.9292
35.8788
35.8297
35.7819
35.7355
35.6904
35.6466
35.6041
35.5628
35.5229
35.4842
35.4468
35.4106
35.3757
35.342
35.3094
35.2781
35.248
35.219
35.1912
35.1645
35.1389
35.1145
35.0912
35.0689
35.0477
35.0275
35.0084
34.9904
34.9733
34.9572
34.9421
34.9279
34.9147
34.9024
34.8911
34.8806
34.871
34.8623
34.8544
34.8474
34.8411
34.8357
34.8311
34.8272
34.824
34.8217
34.82
34.819
34.8187
34.8191
34.8202
34.8218
34.8241
34.8271
34.8306
34.8347
34.8393
34.8445
34.8502
34.8565
34.8632
34.8704
34.8781
34.8863
34.8949
34.9039
34.9134
34.9232
34.9334
34.944
34.955
34.9663
34.9779
34.9898
35.0021
35.0146
35.0274
35.0405
35.0539
35.0674
35.0812
35.0953
35.1095
35.1239
35.1385
35.1533
35.1682
35.1832
35.1984
35.2138
35.2292
35.2447
35.2604
35.2761
35.2918
35.3077
35.3236
35.3395
35.3555
35.3715
35.3875
35.4035
35.4195
35.4355
35.4514
35.4674
35.4833
35.4991
35.5149
35.5307
35.5463
35.5619
35.5774
35.5928
35.6081
35.6233
35.6384
35.6534
35.6682
35.6829
35.6975
35.7119
35.7261
35.7402
35.7542
35.7679
35.7815
35.7949
35.8082
35.8212
35.834
35.8467
35.8591
35.8713
35.8833
35.8951
35.9067
35.918
35.9291
35.94
35.9506
35.961
35.9711
35.981
35.9906
36
36.0091
36.018
36.0265
36.0348
36.0429
36.0506
36.0581
36.0653
36.0722
36.0789
36.0852
36.0913
36.097
36.1025
36.1077
36.1126
36.1172
36.1214
36.1254
36.1291
36.1325
36.1356
36.1384
36.1408
36.143
36.1448
36.1464
36.1476
36.1485
36.1492
36.1495
48.5483
48.5442
48.5359
48.5238
48.5081
48.489
48.4668
48.4416
48.4136
48.3828
48.3494
48.3133
48.2745
48.2332
48.1894
48.143
48.0941
48.0427
47.9888
47.9325
47.8737
47.8125
47.749
47.6831
47.6149
47.5445
47.4718
47.397
47.32
47.2409
47.1597
47.0764
46.9912
46.9041
46.815
46.7241
46.6313
46.5368
46.4406
46.3427
46.2432
46.1421
46.0396
45.9355
45.83
45.7232
45.6151
45.5057
45.395
45.2833
45.1704
45.0564
44.9415
44.8256
44.7088
44.5912
44.4728
44.3536
44.2338
44.1133
43.9922
43.8707
43.7486
43.6261
43.5033
43.3801
43.2567
43.1331
43.0093
42.8853
42.7613
42.6373
42.5132
42.3893
42.2654
42.1417
42.0183
41.895
41.7721
41.6494
41.5272
41.4054
41.284
41.1631
41.0428
40.923
40.8039
40.6853
40.5675
40.4504
40.3341
40.2185
40.1038
39.9899
39.8769
39.7648
39.6536
39.5435
39.4343
39.3261
39.219
39.113
39.008
38.9042
38.8015
38.7
38.5996
38.5005
38.4026
38.3059
38.2104
38.1162
38.0234
37.9318
37.8415
37.7525
37.6648
37.5785
37.4936
37.41
37.3277
37.2469
37.1674
37.0893
37.0126
36.9373
36.8634
36.7908
36.7197
36.65
36.5817
36.5148
36.4493
36.3852
36.3224
36.2611
36.2012
36.1426
36.0855
36.0297
35.9753
35.9222
35.8706
35.8202
35.7712
35.7236
35.6772
35.6322
35.5885
35.5461
35.505
35.4652
35.4266
35.3893
35.3532
35.3183
35.2847
35.2523
35.2211
35.191
35.1622
35.1345
35.1079
35.0824
35.0581
35.0348
35.0127
34.9916
34.9715
34.9525
34.9345
34.9175
34.9016
34.8865
34.8725
34.8594
34.8472
34.8359
34.8255
34.816
34.8074
34.7996
34.7927
34.7865
34.7812
34.7766
34.7728
34.7698
34.7675
34.7659
34.765
34.7648
34.7653
34.7664
34.7682
34.7706
34.7736
34.7772
34.7813
34.786
34.7913
34.7971
34.8034
34.8103
34.8176
34.8253
34.8336
34.8422
34.8513
34.8608
34.8707
34.881
34.8917
34.9027
34.9141
34.9258
34.9378
34.9501
34.9627
34.9756
34.9887
35.0021
35.0157
35.0296
35.0437
35.0579
35.0724
35.0871
35.1019
35.1168
35.132
35.1472
35.1626
35.1781
35.1936
35.2093
35.2251
35.2409
35.2568
35.2727
35.2887
35.3047
35.3207
35.3368
35.3528
35.3689
35.3849
35.4009
35.4169
35.4328
35.4487
35.4645
35.4803
35.496
35.5116
35.5271
35.5425
35.5579
35.5731
35.5882
35.6032
35.6181
35.6328
35.6474
35.6618
35.6761
35.6902
35.7042
35.718
35.7316
35.745
35.7583
35.7713
35.7842
35.7969
35.8093
35.8215
35.8336
35.8454
35.8569
35.8683
35.8794
35.8903
35.9009
35.9113
35.9215
35.9314
35.941
35.9504
35.9595
35.9684
35.9769
35.9853
35.9933
36.0011
36.0086
36.0158
36.0227
36.0293
36.0357
36.0418
36.0475
36.053
36.0582
36.0631
36.0677
36.072
36.076
36.0797
36.083
36.0861
36.0889
36.0914
36.0935
36.0954
36.0969
36.0982
36.0991
36.0997
36.1
48.5068
48.5027
48.4946
48.4827
48.4671
48.4483
48.4262
48.4011
48.3731
48.3424
48.3089
48.2727
48.2339
48.1925
48.1485
48.102
48.053
48.0014
47.9474
47.8909
47.832
47.7707
47.707
47.6409
47.5726
47.502
47.4292
47.3542
47.2771
47.1978
47.1165
47.0331
46.9477
46.8604
46.7712
46.6801
46.5872
46.4926
46.3962
46.2982
46.1986
46.0974
45.9946
45.8905
45.7849
45.6779
45.5696
45.4601
45.3493
45.2374
45.1244
45.0103
44.8952
44.7792
44.6623
44.5445
44.426
44.3067
44.1867
44.0661
43.945
43.8233
43.7011
43.5785
43.4556
43.3323
43.2088
43.085
42.9611
42.8371
42.713
42.5888
42.4647
42.3406
42.2167
42.0929
41.9694
41.846
41.723
41.6003
41.478
41.3561
41.2346
41.1137
40.9933
40.8735
40.7543
40.6357
40.5178
40.4007
40.2843
40.1687
40.0539
39.94
39.8269
39.7148
39.6036
39.4934
39.3842
39.2761
39.1689
39.0629
38.9579
38.8541
38.7514
38.6499
38.5495
38.4504
38.3525
38.2558
38.1603
38.0662
37.9733
37.8817
37.7914
37.7025
37.6149
37.5286
37.4437
37.3601
37.2779
37.1971
37.1177
37.0396
36.963
36.8877
36.8138
36.7414
36.6703
36.6007
36.5324
36.4656
36.4001
36.3361
36.2734
36.2122
36.1523
36.0938
36.0367
35.981
35.9267
35.8737
35.8221
35.7719
35.723
35.6754
35.6291
35.5842
35.5406
35.4983
35.4573
35.4175
35.379
35.3418
35.3058
35.2711
35.2375
35.2052
35.1741
35.1442
35.1154
35.0878
35.0613
35.0359
35.0117
34.9885
34.9665
34.9455
34.9255
34.9066
34.8887
34.8718
34.8559
34.841
34.8271
34.8141
34.802
34.7908
34.7805
34.7711
34.7626
34.7549
34.748
34.742
34.7368
34.7323
34.7286
34.7257
34.7234
34.7219
34.7212
34.7211
34.7216
34.7228
34.7247
34.7272
34.7303
34.7339
34.7382
34.743
34.7484
34.7542
34.7607
34.7676
34.7749
34.7828
34.7911
34.7999
34.809
34.8186
34.8286
34.839
34.8497
34.8608
34.8723
34.884
34.8961
34.9085
34.9212
34.9341
34.9473
34.9608
34.9745
34.9884
35.0026
35.0169
35.0314
35.0461
35.061
35.0761
35.0912
35.1065
35.122
35.1375
35.1532
35.1689
35.1847
35.2006
35.2165
35.2325
35.2485
35.2646
35.2807
35.2968
35.3129
35.329
35.345
35.3611
35.3771
35.3931
35.409
35.4249
35.4407
35.4564
35.4721
35.4877
35.5031
35.5185
35.5338
35.5489
35.5639
35.5788
35.5936
35.6082
35.6227
35.637
35.6512
35.6652
35.679
35.6926
35.7061
35.7194
35.7325
35.7454
35.758
35.7705
35.7828
35.7948
35.8067
35.8183
35.8296
35.8408
35.8517
35.8623
35.8727
35.8829
35.8928
35.9025
35.9119
35.921
35.9299
35.9385
35.9468
35.9549
35.9627
35.9702
35.9774
35.9843
35.991
35.9974
36.0034
36.0092
36.0147
36.0199
36.0248
36.0294
36.0337
36.0377
36.0414
36.0448
36.0479
36.0507
36.0531
36.0553
36.0572
36.0587
36.0599
36.0609
36.0615
36.0618
48.4542
48.4502
48.4421
48.4303
48.4147
48.3959
48.3738
48.3487
48.3207
48.2898
48.2562
48.2199
48.181
48.1394
48.0953
48.0486
47.9994
47.9476
47.8934
47.8368
47.7777
47.7162
47.6523
47.5862
47.5177
47.447
47.374
47.2988
47.2215
47.1421
47.0606
46.9771
46.8916
46.8042
46.7148
46.6236
46.5306
46.4358
46.3393
46.2411
46.1414
46.04
45.9372
45.8329
45.7271
45.62
45.5116
45.402
45.2911
45.179
45.0659
44.9517
44.8365
44.7204
44.6033
44.4855
44.3668
44.2474
44.1273
44.0066
43.8853
43.7635
43.6413
43.5186
43.3955
43.2722
43.1486
43.0247
42.9007
42.7766
42.6524
42.5281
42.404
42.2798
42.1558
42.032
41.9083
41.7849
41.6618
41.5391
41.4167
41.2948
41.1733
41.0523
40.9318
40.8119
40.6927
40.5741
40.4562
40.339
40.2226
40.107
39.9922
39.8782
39.7652
39.653
39.5419
39.4316
39.3224
39.2143
39.1071
39.0011
38.8961
38.7923
38.6896
38.5881
38.4878
38.3887
38.2908
38.1942
38.0988
38.0046
37.9118
37.8203
37.73
37.6411
37.5536
37.4673
37.3825
37.299
37.2168
37.1361
37.0567
36.9787
36.9021
36.8269
36.7531
36.6808
36.6098
36.5402
36.472
36.4053
36.3399
36.2759
36.2134
36.1522
36.0924
36.0341
35.9771
35.9215
35.8672
35.8144
35.7629
35.7127
35.6639
35.6164
35.5703
35.5255
35.4819
35.4397
35.3988
35.3592
35.3208
35.2837
35.2478
35.2132
35.1798
35.1476
35.1165
35.0867
35.058
35.0305
35.0042
34.9789
34.9548
34.9318
34.9098
34.8889
34.8691