/*--------------------------------*- C++ -*----------------------------------*\
| =========                 |                                                 |
| \\      /  F ield         | OpenFOAM: The Open Source CFD Toolbox           |
|  \\    /   O peration     | Version:  2212                                  |
|   \\  /    A nd           | Website:  www.openfoam.com                      |
|    \\/     M anipulation  |                                                 |
\*---------------------------------------------------------------------------*/
FoamFile
{
    version     2.0;
    format      ascii;
    arch        "LSB;label=32;scalar=64";
    class       volScalarField;
    location    "800";
    object      p_rgh;
}
// * * * * * * * * * * * * * * * * * * * * * * * * * * * * * * * * * * * * * //

dimensions      [1 -1 -2 0 0 0 0];

internalField   nonuniform List<scalar> 
204800
(
49.3801
49.3745
49.3699
49.3639
49.3562
49.3464
49.3345
49.3202
49.3034
49.2842
49.2627
49.239
49.2132
49.1853
49.1555
49.1238
49.0902
49.0548
49.0175
48.9785
48.9376
48.895
48.8506
48.8045
48.7566
48.7071
48.656
48.6031
48.5487
48.4927
48.4351
48.376
48.3154
48.2533
48.1898
48.1248
48.0585
47.9908
47.9218
47.8514
47.7798
47.707
47.633
47.5578
47.4814
47.404
47.3255
47.2459
47.1654
47.0839
47.0014
46.9181
46.8339
46.7489
46.663
46.5765
46.4892
46.4012
46.3125
46.2233
46.1335
46.0431
45.9522
45.8609
45.7691
45.6769
45.5844
45.4915
45.3984
45.305
45.2113
45.1175
45.0235
44.9294
44.8352
44.741
44.6467
44.5525
44.4583
44.3641
44.2701
44.1763
44.0826
43.9891
43.8959
43.8029
43.7102
43.6178
43.5258
43.4342
43.343
43.2522
43.1619
43.072
42.9827
42.8939
42.8057
42.7181
42.6311
42.5447
42.459
42.3739
42.2896
42.206
42.1231
42.041
41.9597
41.8792
41.7995
41.7206
41.6426
41.5654
41.4892
41.4138
41.3393
41.2658
41.1932
41.1215
41.0508
40.9811
40.9123
40.8446
40.7778
40.7121
40.6474
40.5837
40.521
40.4594
40.3988
40.3393
40.2808
40.2234
40.167
40.1118
40.0575
40.0044
39.9523
39.9013
39.8514
39.8026
39.7548
39.7081
39.6625
39.6179
39.5744
39.532
39.4907
39.4504
39.4111
39.3729
39.3358
39.2997
39.2646
39.2305
39.1975
39.1655
39.1345
39.1045
39.0755
39.0475
39.0205
38.9945
38.9694
38.9452
38.922
38.8998
38.8785
38.858
38.8385
38.8199
38.8022
38.7854
38.7694
38.7543
38.74
38.7266
38.7139
38.7021
38.6911
38.6809
38.6714
38.6627
38.6548
38.6476
38.6411
38.6353
38.6303
38.6259
38.6222
38.6191
38.6168
38.615
38.6139
38.6133
38.6134
38.6141
38.6153
38.6171
38.6195
38.6224
38.6258
38.6297
38.6341
38.639
38.6443
38.6501
38.6564
38.6631
38.6702
38.6778
38.6857
38.694
38.7026
38.7117
38.7211
38.7308
38.7408
38.7511
38.7618
38.7727
38.7839
38.7954
38.8071
38.819
38.8312
38.8436
38.8562
38.8691
38.8821
38.8952
38.9086
38.922
38.9357
38.9495
38.9633
38.9773
38.9915
39.0057
39.0199
39.0343
39.0487
39.0632
39.0777
39.0923
39.1069
39.1215
39.1361
39.1508
39.1654
39.18
39.1946
39.2091
39.2236
39.2381
39.2525
39.2668
39.2811
39.2953
39.3095
39.3235
39.3374
39.3512
39.365
39.3786
39.392
39.4054
39.4186
39.4317
39.4446
39.4574
39.47
39.4824
39.4947
39.5068
39.5187
39.5304
39.542
39.5533
39.5645
39.5754
39.5861
39.5967
39.607
39.617
39.6269
39.6365
39.6459
39.655
39.664
39.6726
39.681
39.6892
39.6971
39.7048
39.7122
39.7193
39.7262
39.7328
39.7391
39.7452
39.751
39.7565
39.7617
39.7667
39.7713
39.7757
39.7798
39.7836
39.7872
39.7904
39.7934
39.796
39.7984
39.8004
39.8022
39.8037
39.8049
39.8058
39.8064
39.8067
49.2971
49.2934
49.2875
49.2794
49.2693
49.2573
49.2433
49.2273
49.2093
49.1892
49.1671
49.143
49.1169
49.0889
49.0591
49.0273
48.9937
48.9583
48.9211
48.8821
48.8413
48.7987
48.7544
48.7083
48.6605
48.6111
48.56
48.5073
48.453
48.397
48.3396
48.2806
48.2201
48.1581
48.0947
48.0298
47.9636
47.896
47.8271
47.7569
47.6854
47.6127
47.5388
47.4637
47.3875
47.3102
47.2319
47.1525
47.072
46.9907
46.9084
46.8252
46.7411
46.6563
46.5706
46.4842
46.397
46.3092
46.2207
46.1316
46.042
45.9518
45.861
45.7699
45.6783
45.5862
45.4939
45.4012
45.3082
45.2149
45.1215
45.0278
44.934
44.8401
44.746
44.652
44.5579
44.4638
44.3698
44.2758
44.182
44.0883
43.9948
43.9015
43.8084
43.7156
43.6231
43.5309
43.439
43.3476
43.2565
43.1659
43.0757
42.9861
42.8969
42.8083
42.7203
42.6328
42.5459
42.4597
42.3742
42.2893
42.2051
42.1216
42.0389
41.957
41.8758
41.7954
41.7159
41.6372
41.5593
41.4823
41.4061
41.3309
41.2566
41.1832
41.1107
41.0392
40.9686
40.899
40.8304
40.7628
40.6962
40.6306
40.566
40.5024
40.4398
40.3783
40.3179
40.2584
40.2001
40.1428
40.0865
40.0314
39.9773
39.9242
39.8722
39.8214
39.7715
39.7228
39.6751
39.6285
39.583
39.5385
39.4951
39.4528
39.4115
39.3713
39.3321
39.294
39.2569
39.2209
39.1859
39.1519
39.1189
39.087
39.0561
39.0262
38.9972
38.9693
38.9423
38.9163
38.8913
38.8672
38.844
38.8218
38.8006
38.7802
38.7607
38.7422
38.7245
38.7077
38.6918
38.6767
38.6624
38.649
38.6364
38.6246
38.6136
38.6034
38.594
38.5853
38.5774
38.5702
38.5638
38.558
38.553
38.5486
38.5449
38.5419
38.5395
38.5378
38.5366
38.5361
38.5362
38.5369
38.5381
38.5399
38.5423
38.5452
38.5486
38.5525
38.5569
38.5618
38.5671
38.5729
38.5792
38.5859
38.593
38.6005
38.6084
38.6167
38.6254
38.6344
38.6438
38.6535
38.6635
38.6738
38.6844
38.6953
38.7065
38.718
38.7297
38.7416
38.7538
38.7662
38.7788
38.7916
38.8045
38.8177
38.831
38.8445
38.8581
38.8718
38.8857
38.8997
38.9138
38.928
38.9422
38.9566
38.971
38.9854
38.9999
39.0145
39.029
39.0436
39.0582
39.0728
39.0874
39.102
39.1166
39.1311
39.1456
39.16
39.1744
39.1887
39.203
39.2172
39.2313
39.2453
39.2592
39.273
39.2867
39.3003
39.3137
39.327
39.3402
39.3533
39.3662
39.3789
39.3915
39.4039
39.4162
39.4283
39.4402
39.4519
39.4634
39.4747
39.4859
39.4968
39.5075
39.518
39.5283
39.5383
39.5482
39.5578
39.5671
39.5763
39.5852
39.5938
39.6022
39.6104
39.6183
39.6259
39.6333
39.6404
39.6473
39.6539
39.6602
39.6663
39.672
39.6776
39.6828
39.6877
39.6924
39.6968
39.7009
39.7047
39.7082
39.7114
39.7144
39.717
39.7194
39.7214
39.7232
39.7247
39.7259
39.7268
39.7273
39.7276
49.279
49.2759
49.2703
49.2624
49.2525
49.2405
49.2266
49.2106
49.1925
49.1724
49.1502
49.1261
49.1
49.0719
49.042
49.0103
48.9766
48.9412
48.9039
48.8649
48.824
48.7814
48.7371
48.691
48.6432
48.5938
48.5427
48.4899
48.4356
48.3797
48.3222
48.2632
48.2026
48.1406
48.0772
48.0124
47.9461
47.8785
47.8096
47.7394
47.6679
47.5952
47.5213
47.4462
47.37
47.2927
47.2143
47.1349
47.0545
46.9731
46.8908
46.8076
46.7236
46.6387
46.553
46.4666
46.3794
46.2916
46.2031
46.114
46.0243
45.9341
45.8434
45.7522
45.6606
45.5686
45.4762
45.3835
45.2906
45.1973
45.1038
45.0102
44.9164
44.8224
44.7284
44.6343
44.5402
44.4462
44.3521
44.2582
44.1643
44.0707
43.9771
43.8838
43.7908
43.6979
43.6054
43.5132
43.4214
43.3299
43.2389
43.1483
43.0581
42.9685
42.8793
42.7907
42.7026
42.6152
42.5283
42.4421
42.3566
42.2717
42.1875
42.1041
42.0214
41.9394
41.8583
41.7779
41.6983
41.6196
41.5418
41.4648
41.3886
41.3134
41.2391
41.1657
41.0932
41.0217
40.9512
40.8816
40.813
40.7454
40.6788
40.6132
40.5486
40.485
40.4225
40.361
40.3005
40.2411
40.1828
40.1255
40.0692
40.0141
39.96
39.9069
39.855
39.8041
39.7543
39.7056
39.6579
39.6113
39.5658
39.5213
39.4779
39.4356
39.3944
39.3542
39.315
39.2769
39.2398
39.2038
39.1688
39.1349
39.1019
39.07
39.0391
39.0092
38.9802
38.9523
38.9253
38.8994
38.8743
38.8503
38.8271
38.8049
38.7837
38.7633
38.7439
38.7253
38.7077
38.6909
38.675
38.6599
38.6457
38.6323
38.6197
38.6079
38.5969
38.5867
38.5773
38.5687
38.5607
38.5536
38.5471
38.5414
38.5363
38.532
38.5283
38.5253
38.5229
38.5212
38.5201
38.5196
38.5197
38.5203
38.5216
38.5234
38.5258
38.5287
38.5321
38.536
38.5404
38.5453
38.5507
38.5565
38.5628
38.5695
38.5766
38.5841
38.592
38.6003
38.609
38.618
38.6274
38.6371
38.6471
38.6575
38.6681
38.679
38.6902
38.7017
38.7134
38.7253
38.7375
38.7499
38.7625
38.7753
38.7883
38.8014
38.8148
38.8282
38.8418
38.8556
38.8695
38.8835
38.8976
38.9117
38.926
38.9403
38.9548
38.9692
38.9837
38.9983
39.0128
39.0274
39.042
39.0566
39.0712
39.0858
39.1004
39.1149
39.1294
39.1439
39.1583
39.1726
39.1868
39.201
39.2151
39.2291
39.2431
39.2569
39.2706
39.2841
39.2976
39.3109
39.3241
39.3372
39.3501
39.3628
39.3754
39.3878
39.4001
39.4122
39.4241
39.4358
39.4473
39.4586
39.4698
39.4807
39.4914
39.5019
39.5122
39.5222
39.5321
39.5417
39.5511
39.5602
39.5691
39.5777
39.5862
39.5943
39.6022
39.6099
39.6172
39.6244
39.6312
39.6378
39.6441
39.6502
39.656
39.6615
39.6667
39.6716
39.6763
39.6807
39.6848
39.6886
39.6921
39.6953
39.6983
39.7009
39.7033
39.7054
39.7071
39.7086
39.7098
39.7107
39.7113
39.7116
49.2064
49.2032
49.1971
49.1884
49.1775
49.1645
49.1494
49.1325
49.1136
49.0928
49.0702
49.0456
49.0192
48.991
48.9609
48.929
48.8953
48.8598
48.8226
48.7835
48.7426
48.7
48.6557
48.6096
48.5619
48.5125
48.4614
48.4087
48.3544
48.2985
48.241
48.1821
48.1216
48.0597
47.9963
47.9315
47.8654
47.7978
47.729
47.6588
47.5874
47.5148
47.441
47.366
47.2898
47.2126
47.1343
47.055
46.9747
46.8934
46.8112
46.7281
46.6441
46.5593
46.4737
46.3874
46.3003
46.2126
46.1242
46.0352
45.9457
45.8556
45.765
45.6739
45.5824
45.4905
45.3982
45.3056
45.2127
45.1196
45.0262
44.9327
44.839
44.7451
44.6512
44.5573
44.4633
44.3693
44.2754
44.1816
44.0879
43.9943
43.9009
43.8077
43.7147
43.622
43.5296
43.4376
43.3458
43.2545
43.1636
43.0731
42.983
42.8935
42.8044
42.7159
42.628
42.5406
42.4539
42.3678
42.2824
42.1976
42.1135
42.0302
41.9476
41.8658
41.7847
41.7045
41.625
41.5464
41.4686
41.3918
41.3157
41.2406
41.1664
41.0931
41.0208
40.9493
40.8789
40.8094
40.7409
40.6734
40.6069
40.5414
40.4769
40.4134
40.351
40.2896
40.2292
40.1699
40.1116
40.0544
39.9983
39.9432
39.8892
39.8362
39.7844
39.7336
39.6838
39.6352
39.5876
39.5411
39.4956
39.4513
39.4079
39.3657
39.3245
39.2844
39.2453
39.2073
39.1703
39.1343
39.0994
39.0655
39.0326
39.0007
38.9699
38.94
38.9112
38.8833
38.8564
38.8305
38.8055
38.7815
38.7584
38.7362
38.715
38.6947
38.6753
38.6568
38.6392
38.6225
38.6066
38.5915
38.5774
38.564
38.5515
38.5397
38.5288
38.5186
38.5092
38.5006
38.4927
38.4856
38.4792
38.4735
38.4684
38.4641
38.4605
38.4575
38.4551
38.4534
38.4523
38.4518
38.452
38.4527
38.4539
38.4558
38.4581
38.461
38.4645
38.4684
38.4728
38.4777
38.4831
38.489
38.4952
38.5019
38.5091
38.5166
38.5245
38.5328
38.5415
38.5505
38.5599
38.5696
38.5797
38.59
38.6006
38.6116
38.6227
38.6342
38.6459
38.6579
38.67
38.6824
38.695
38.7078
38.7208
38.734
38.7473
38.7607
38.7744
38.7881
38.802
38.816
38.83
38.8442
38.8585
38.8728
38.8872
38.9017
38.9162
38.9307
38.9453
38.9599
38.9745
38.9891
39.0037
39.0182
39.0328
39.0473
39.0618
39.0762
39.0906
39.1049
39.1192
39.1334
39.1474
39.1614
39.1753
39.1891
39.2028
39.2164
39.2299
39.2432
39.2564
39.2694
39.2823
39.295
39.3076
39.32
39.3323
39.3443
39.3562
39.3679
39.3794
39.3908
39.4019
39.4128
39.4235
39.434
39.4443
39.4543
39.4642
39.4737
39.4831
39.4922
39.5011
39.5098
39.5182
39.5263
39.5342
39.5419
39.5492
39.5564
39.5632
39.5698
39.5761
39.5822
39.5879
39.5934
39.5987
39.6036
39.6083
39.6126
39.6167
39.6205
39.624
39.6273
39.6302
39.6329
39.6352
39.6373
39.6391
39.6405
39.6417
39.6426
39.6432
39.6435
49.1783
49.1753
49.1694
49.161
49.1502
49.1373
49.1223
49.1054
49.0865
49.0656
49.0429
49.0183
48.9919
48.9636
48.9334
48.9015
48.8677
48.8322
48.7948
48.7557
48.7148
48.6721
48.6278
48.5817
48.5339
48.4844
48.4333
48.3806
48.3262
48.2703
48.2128
48.1538
48.0933
48.0314
47.968
47.9032
47.837
47.7694
47.7005
47.6304
47.5589
47.4863
47.4124
47.3374
47.2613
47.184
47.1057
47.0263
46.946
46.8647
46.7824
46.6993
46.6153
46.5305
46.4449
46.3586
46.2715
46.1837
46.0953
46.0063
45.9168
45.8266
45.736
45.6449
45.5534
45.4615
45.3692
45.2766
45.1837
45.0905
44.9971
44.9036
44.8099
44.716
44.6221
44.5281
44.4341
44.3402
44.2462
44.1524
44.0587
43.9651
43.8717
43.7785
43.6855
43.5928
43.5004
43.4083
43.3166
43.2252
43.1343
43.0438
42.9537
42.8642
42.7751
42.6866
42.5987
42.5114
42.4246
42.3385
42.2531
42.1683
42.0843
42.0009
41.9183
41.8365
41.7554
41.6752
41.5958
41.5172
41.4394
41.3625
41.2865
41.2114
41.1372
41.0639
40.9916
40.9202
40.8497
40.7802
40.7118
40.6443
40.5777
40.5122
40.4478
40.3843
40.3219
40.2605
40.2001
40.1408
40.0826
40.0254
39.9693
39.9142
39.8602
39.8073
39.7555
39.7047
39.655
39.6063
39.5588
39.5123
39.4669
39.4225
39.3792
39.337
39.2958
39.2557
39.2166
39.1786
39.1416
39.1057
39.0708
39.0369
39.0041
38.9722
38.9414
38.9116
38.8827
38.8549
38.828
38.8021
38.7772
38.7532
38.7301
38.708
38.6868
38.6665
38.6471
38.6287
38.6111
38.5943
38.5785
38.5635
38.5493
38.536
38.5235
38.5117
38.5008
38.4907
38.4813
38.4727
38.4649
38.4578
38.4514
38.4457
38.4407
38.4364
38.4328
38.4298
38.4275
38.4258
38.4247
38.4242
38.4244
38.4251
38.4264
38.4282
38.4306
38.4336
38.437
38.441
38.4454
38.4504
38.4558
38.4616
38.4679
38.4746
38.4818
38.4893
38.4973
38.5056
38.5143
38.5234
38.5327
38.5425
38.5525
38.5629
38.5735
38.5845
38.5957
38.6072
38.6189
38.6308
38.643
38.6554
38.6681
38.6809
38.6939
38.707
38.7204
38.7338
38.7475
38.7612
38.7751
38.7891
38.8032
38.8174
38.8317
38.846
38.8604
38.8749
38.8894
38.904
38.9185
38.9331
38.9477
38.9624
38.977
38.9915
39.0061
39.0206
39.0351
39.0496
39.064
39.0783
39.0926
39.1067
39.1208
39.1348
39.1488
39.1626
39.1763
39.1898
39.2033
39.2166
39.2298
39.2429
39.2558
39.2685
39.2811
39.2935
39.3058
39.3178
39.3297
39.3414
39.353
39.3643
39.3754
39.3863
39.397
39.4075
39.4178
39.4279
39.4377
39.4473
39.4567
39.4658
39.4747
39.4833
39.4917
39.4999
39.5078
39.5154
39.5228
39.5299
39.5368
39.5434
39.5497
39.5558
39.5615
39.567
39.5723
39.5772
39.5819
39.5862
39.5903
39.5941
39.5977
39.6009
39.6038
39.6065
39.6088
39.6109
39.6127
39.6141
39.6153
39.6162
39.6168
39.6171
49.1124
49.1094
49.1033
49.0946
49.0834
49.07
49.0545
49.0371
49.0177
48.9964
48.9733
48.9484
48.9217
48.8932
48.8629
48.8308
48.797
48.7613
48.7239
48.6847
48.6437
48.601
48.5566
48.5105
48.4627
48.4132
48.3621
48.3094
48.255
48.1991
48.1416
48.0827
48.0222
47.9602
47.8968
47.832
47.7659
47.6983
47.6295
47.5593
47.4879
47.4153
47.3415
47.2665
47.1904
47.1132
47.0349
46.9556
46.8753
46.794
46.7118
46.6287
46.5448
46.46
46.3744
46.2881
46.2011
46.1134
46.0251
45.9361
45.8466
45.7565
45.6659
45.5749
45.4834
45.3916
45.2993
45.2068
45.1139
45.0208
44.9275
44.834
44.7403
44.6466
44.5527
44.4588
44.3649
44.271
44.1771
44.0833
43.9897
43.8961
43.8028
43.7097
43.6168
43.5241
43.4318
43.3398
43.2481
43.1568
43.066
42.9755
42.8855
42.7961
42.7071
42.6187
42.5308
42.4435
42.3569
42.2708
42.1855
42.1008
42.0168
41.9335
41.851
41.7692
41.6883
41.6081
41.5287
41.4502
41.3725
41.2957
41.2198
41.1447
41.0706
40.9974
40.9251
40.8538
40.7834
40.714
40.6456
40.5782
40.5117
40.4463
40.3819
40.3185
40.2562
40.1949
40.1346
40.0753
40.0172
39.9601
39.904
39.849
39.7951
39.7422
39.6905
39.6397
39.5901
39.5415
39.494
39.4476
39.4022
39.358
39.3147
39.2726
39.2315
39.1914
39.1524
39.1145
39.0776
39.0417
39.0068
38.973
38.9402
38.9085
38.8777
38.8479
38.8191
38.7913
38.7645
38.7387
38.7138
38.6898
38.6668
38.6448
38.6236
38.6034
38.5841
38.5656
38.5481
38.5314
38.5156
38.5007
38.4865
38.4732
38.4608
38.4491
38.4382
38.4281
38.4188
38.4103
38.4024
38.3954
38.389
38.3834
38.3784
38.3741
38.3706
38.3676
38.3653
38.3637
38.3626
38.3622
38.3624
38.3631
38.3645
38.3663
38.3688
38.3717
38.3752
38.3792
38.3837
38.3886
38.394
38.3999
38.4062
38.413
38.4202
38.4277
38.4357
38.4441
38.4528
38.4618
38.4713
38.481
38.4911
38.5014
38.5121
38.5231
38.5343
38.5458
38.5575
38.5695
38.5817
38.5941
38.6068
38.6196
38.6326
38.6458
38.6591
38.6726
38.6862
38.7
38.7139
38.7279
38.742
38.7562
38.7705
38.7849
38.7993
38.8138
38.8283
38.8428
38.8574
38.872
38.8866
38.9012
38.9158
38.9304
38.945
38.9595
38.974
38.9885
39.0029
39.0172
39.0315
39.0457
39.0598
39.0738
39.0877
39.1015
39.1152
39.1288
39.1422
39.1555
39.1687
39.1818
39.1947
39.2074
39.22
39.2324
39.2447
39.2568
39.2687
39.2804
39.2919
39.3032
39.3143
39.3252
39.336
39.3465
39.3567
39.3668
39.3766
39.3862
39.3956
39.4047
39.4136
39.4223
39.4307
39.4388
39.4467
39.4543
39.4617
39.4689
39.4757
39.4823
39.4886
39.4947
39.5004
39.5059
39.5112
39.5161
39.5208
39.5251
39.5292
39.533
39.5366
39.5398
39.5427
39.5454
39.5477
39.5498
39.5516
39.553
39.5542
39.5551
39.5557
39.556
49.0775
49.0747
49.0687
49.0602
49.0491
49.0358
49.0204
49.003
48.9836
48.9623
48.9392
48.9143
48.8875
48.859
48.8286
48.7964
48.7625
48.7267
48.6892
48.65
48.6089
48.5662
48.5217
48.4755
48.4276
48.3781
48.3269
48.2741
48.2197
48.1638
48.1062
48.0472
47.9867
47.9247
47.8612
47.7964
47.7302
47.6626
47.5937
47.5235
47.4521
47.3794
47.3055
47.2305
47.1543
47.0771
46.9987
46.9194
46.839
46.7577
46.6755
46.5924
46.5084
46.4236
46.338
46.2516
46.1646
46.0768
45.9884
45.8994
45.8099
45.7198
45.6292
45.5381
45.4466
45.3547
45.2624
45.1698
45.0769
44.9838
44.8905
44.7969
44.7032
44.6094
44.5155
44.4216
44.3276
44.2337
44.1398
44.046
43.9523
43.8588
43.7654
43.6722
43.5793
43.4866
43.3943
43.3022
43.2106
43.1193
43.0284
42.9379
42.8479
42.7584
42.6695
42.581
42.4931
42.4058
42.3192
42.2331
42.1478
42.0631
41.9791
41.8958
41.8133
41.7315
41.6505
41.5703
41.491
41.4124
41.3348
41.258
41.182
41.107
41.0329
40.9597
40.8874
40.8161
40.7457
40.6763
40.6079
40.5405
40.4741
40.4087
40.3443
40.2809
40.2186
40.1573
40.097
40.0378
39.9796
39.9225
39.8665
39.8115
39.7576
39.7048
39.653
39.6023
39.5527
39.5042
39.4567
39.4103
39.365
39.3207
39.2775
39.2354
39.1943
39.1543
39.1153
39.0774
39.0405
39.0047
38.9699
38.9361
38.9033
38.8716
38.8408
38.8111
38.7823
38.7546
38.7278
38.702
38.6771
38.6532
38.6302
38.6082
38.5871
38.5669
38.5476
38.5292
38.5117
38.4951
38.4793
38.4644
38.4503
38.437
38.4246
38.413
38.4021
38.3921
38.3828
38.3743
38.3665
38.3595
38.3531
38.3475
38.3426
38.3384
38.3348
38.3319
38.3297
38.328
38.327
38.3267
38.3269
38.3276
38.329
38.3309
38.3334
38.3364
38.3399
38.3439
38.3484
38.3534
38.3589
38.3648
38.3711
38.3779
38.3851
38.3927
38.4007
38.4091
38.4178
38.4269
38.4364
38.4461
38.4562
38.4666
38.4773
38.4883
38.4996
38.5111
38.5229
38.5349
38.5471
38.5595
38.5722
38.585
38.5981
38.6113
38.6246
38.6382
38.6518
38.6656
38.6795
38.6936
38.7077
38.7219
38.7362
38.7506
38.765
38.7795
38.7941
38.8087
38.8233
38.8379
38.8525
38.8671
38.8818
38.8964
38.911
38.9255
38.94
38.9545
38.9689
38.9832
38.9975
39.0117
39.0258
39.0399
39.0538
39.0676
39.0813
39.0949
39.1084
39.1217
39.1349
39.148
39.1609
39.1737
39.1862
39.1987
39.2109
39.223
39.2349
39.2467
39.2582
39.2695
39.2806
39.2916
39.3023
39.3128
39.3231
39.3331
39.343
39.3526
39.362
39.3711
39.38
39.3887
39.3971
39.4052
39.4131
39.4208
39.4282
39.4353
39.4421
39.4487
39.4551
39.4611
39.4669
39.4724
39.4776
39.4826
39.4872
39.4916
39.4957
39.4995
39.503
39.5063
39.5092
39.5119
39.5142
39.5163
39.5181
39.5195
39.5207
39.5216
39.5222
39.5225
49.0169
49.0139
49.0079
48.9993
48.9881
48.9746
48.9589
48.9412
48.9216
48.9001
48.8768
48.8516
48.8247
48.7959
48.7654
48.7331
48.699
48.6632
48.6256
48.5862
48.5451
48.5023
48.4577
48.4115
48.3636
48.314
48.2628
48.2099
48.1555
48.0995
48.0419
47.9829
47.9223
47.8603
47.7968
47.732
47.6657
47.5981
47.5292
47.459
47.3876
47.3149
47.241
47.1659
47.0898
47.0125
46.9342
46.8548
46.7745
46.6932
46.6109
46.5278
46.4438
46.359
46.2734
46.187
46.1
46.0122
45.9239
45.8349
45.7453
45.6552
45.5646
45.4735
45.382
45.2901
45.1979
45.1053
45.0124
44.9193
44.826
44.7324
44.6388
44.545
44.4511
44.3572
44.2632
44.1693
44.0754
43.9817
43.888
43.7945
43.7011
43.608
43.5151
43.4224
43.3301
43.2381
43.1464
43.0552
42.9643
42.8739
42.7839
42.6945
42.6055
42.5171
42.4293
42.342
42.2554
42.1694
42.084
41.9994
41.9154
41.8322
41.7497
41.668
41.587
41.5069
41.4276
41.3491
41.2715
41.1947
41.1188
41.0438
40.9697
40.8966
40.8244
40.7531
40.6828
40.6134
40.5451
40.4777
40.4113
40.346
40.2816
40.2183
40.156
40.0948
40.0346
39.9754
39.9173
39.8603
39.8043
39.7494
39.6955
39.6428
39.5911
39.5404
39.4909
39.4424
39.395
39.3486
39.3034
39.2592
39.216
39.1739
39.1329
39.093
39.054
39.0162
38.9794
38.9436
38.9088
38.8751
38.8424
38.8107
38.78
38.7503
38.7217
38.694
38.6672
38.6415
38.6167
38.5928
38.5699
38.5479
38.5269
38.5067
38.4875
38.4692
38.4517
38.4351
38.4194
38.4046
38.3905
38.3773
38.3649
38.3534
38.3426
38.3326
38.3233
38.3149
38.3071
38.3002
38.2939
38.2883
38.2834
38.2793
38.2758
38.2729
38.2707
38.2691
38.2682
38.2678
38.2681
38.2689
38.2703
38.2723
38.2748
38.2778
38.2813
38.2854
38.29
38.295
38.3005
38.3064
38.3128
38.3196
38.3269
38.3345
38.3426
38.351
38.3597
38.3689
38.3784
38.3882
38.3983
38.4087
38.4195
38.4305
38.4418
38.4533
38.4651
38.4771
38.4894
38.5019
38.5145
38.5274
38.5405
38.5537
38.5671
38.5806
38.5943
38.6081
38.6221
38.6361
38.6503
38.6645
38.6789
38.6933
38.7077
38.7222
38.7368
38.7514
38.766
38.7806
38.7953
38.8099
38.8246
38.8392
38.8538
38.8684
38.8829
38.8974
38.9118
38.9262
38.9404
38.9547
38.9688
38.9828
38.9968
39.0106
39.0243
39.0379
39.0514
39.0648
39.078
39.091
39.104
39.1167
39.1293
39.1418
39.154
39.1661
39.178
39.1898
39.2013
39.2126
39.2238
39.2347
39.2454
39.256
39.2662
39.2763
39.2862
39.2958
39.3052
39.3143
39.3232
39.3319
39.3403
39.3484
39.3563
39.364
39.3714
39.3785
39.3854
39.392
39.3983
39.4044
39.4101
39.4156
39.4209
39.4258
39.4305
39.4349
39.439
39.4428
39.4463
39.4495
39.4525
39.4551
39.4575
39.4595
39.4613
39.4628
39.464
39.4649
39.4655
39.4658
48.9775
48.9746
48.9687
48.9602
48.9491
48.9358
48.9202
48.9026
48.883
48.8615
48.8382
48.813
48.786
48.7572
48.7266
48.6942
48.6601
48.6242
48.5865
48.547
48.5058
48.4629
48.4183
48.3719
48.3239
48.2743
48.2229
48.17
48.1155
48.0594
48.0018
47.9427
47.8821
47.82
47.7564
47.6915
47.6252
47.5575
47.4885
47.4183
47.3467
47.274
47.2
47.1249
47.0487
46.9714
46.893
46.8135
46.7331
46.6517
46.5694
46.4862
46.4022
46.3173
46.2316
46.1452
46.0581
45.9703
45.8819
45.7928
45.7032
45.613
45.5223
45.4312
45.3396
45.2477
45.1554
45.0627
44.9698
44.8766
44.7832
44.6897
44.5959
44.5021
44.4082
44.3142
44.2202
44.1262
44.0323
43.9385
43.8447
43.7512
43.6578
43.5646
43.4717
43.379
43.2866
43.1946
43.1029
43.0116
42.9207
42.8302
42.7402
42.6507
42.5617
42.4733
42.3854
42.2981
42.2115
42.1255
42.0401
41.9554
41.8714
41.7882
41.7057
41.6239
41.543
41.4628
41.3835
41.305
41.2274
41.1506
41.0747
40.9997
40.9256
40.8525
40.7803
40.709
40.6387
40.5693
40.501
40.4336
40.3673
40.3019
40.2376
40.1743
40.112
40.0508
39.9906
39.9314
39.8734
39.8163
39.7604
39.7055
39.6517
39.5989
39.5472
39.4966
39.4471
39.3986
39.3512
39.3049
39.2597
39.2155
39.1724
39.1303
39.0894
39.0494
39.0106
38.9727
38.9359
38.9002
38.8655
38.8318
38.7991
38.7675
38.7368
38.7072
38.6786
38.6509
38.6242
38.5985
38.5737
38.5499
38.5271
38.5051
38.4841
38.464
38.4449
38.4266
38.4092
38.3926
38.3769
38.3621
38.3481
38.335
38.3227
38.3111
38.3004
38.2904
38.2812
38.2728
38.2651
38.2582
38.252
38.2465
38.2416
38.2375
38.234
38.2312
38.2291
38.2275
38.2266
38.2263
38.2266
38.2275
38.229
38.231
38.2335
38.2366
38.2402
38.2443
38.2489
38.254
38.2595
38.2655
38.2719
38.2788
38.2861
38.2938
38.3018
38.3103
38.3191
38.3283
38.3378
38.3477
38.3578
38.3683
38.3791
38.3901
38.4015
38.413
38.4249
38.4369
38.4492
38.4617
38.4745
38.4874
38.5005
38.5137
38.5272
38.5407
38.5545
38.5683
38.5823
38.5964
38.6105
38.6248
38.6392
38.6536
38.6681
38.6826
38.6972
38.7119
38.7265
38.7412
38.7558
38.7705
38.7852
38.7998
38.8145
38.8291
38.8436
38.8581
38.8726
38.8869
38.9013
38.9155
38.9296
38.9437
38.9577
38.9715
38.9853
38.9989
39.0124
39.0258
39.039
39.0521
39.065
39.0778
39.0904
39.1029
39.1152
39.1273
39.1392
39.1509
39.1625
39.1739
39.185
39.196
39.2067
39.2172
39.2275
39.2376
39.2475
39.2571
39.2665
39.2756
39.2845
39.2932
39.3016
39.3098
39.3177
39.3254
39.3328
39.3399
39.3468
39.3534
39.3597
39.3658
39.3716
39.3771
39.3823
39.3873
39.3919
39.3963
39.4004
39.4042
39.4078
39.411
39.414
39.4166
39.419
39.421
39.4228
39.4243
39.4255
39.4264
39.427
39.4273
48.9206
48.9177
48.9118
48.9033
48.8922
48.8788
48.8631
48.8454
48.8257
48.8041
48.7806
48.7553
48.7282
48.6993
48.6685
48.636
48.6018
48.5657
48.5279
48.4884
48.4471
48.4041
48.3593
48.3129
48.2648
48.2151
48.1637
48.1107
48.0561
48
47.9423
47.8831
47.8224
47.7603
47.6967
47.6317
47.5653
47.4976
47.4286
47.3583
47.2867
47.2139
47.1399
47.0647
46.9884
46.911
46.8326
46.7531
46.6727
46.5912
46.5089
46.4256
46.3416
46.2566
46.1709
46.0845
45.9973
45.9095
45.821
45.7319
45.6422
45.552
45.4613
45.3701
45.2785
45.1866
45.0942
45.0015
44.9086
44.8154
44.7219
44.6283
44.5346
44.4407
44.3468
44.2528
44.1587
44.0647
43.9708
43.8769
43.7832
43.6896
43.5962
43.503
43.41
43.3174
43.225
43.1329
43.0412
42.9499
42.859
42.7685
42.6785
42.589
42.5
42.4116
42.3237
42.2365
42.1498
42.0638
41.9784
41.8937
41.8098
41.7265
41.6441
41.5623
41.4814
41.4013
41.3219
41.2435
41.1658
41.0891
41.0132
40.9382
40.8642
40.7911
40.7189
40.6476
40.5773
40.508
40.4397
40.3724
40.3061
40.2407
40.1764
40.1132
40.0509
39.9897
39.9296
39.8705
39.8125
39.7555
39.6996
39.6447
39.5909
39.5382
39.4866
39.436
39.3865
39.3381
39.2908
39.2445
39.1993
39.1552
39.1122
39.0702
39.0293
38.9894
38.9506
38.9128
38.8761
38.8404
38.8057
38.7721
38.7395
38.7079
38.6773
38.6477
38.6191
38.5915
38.5649
38.5393
38.5146
38.4908
38.468
38.4461
38.4252
38.4052
38.386
38.3678
38.3505
38.334
38.3184
38.3036
38.2897
38.2766
38.2643
38.2529
38.2422
38.2323
38.2232
38.2148
38.2072
38.2003
38.1941
38.1887
38.1839
38.1799
38.1764
38.1737
38.1716
38.1701
38.1693
38.169
38.1694
38.1703
38.1718
38.1739
38.1765
38.1796
38.1833
38.1874
38.1921
38.1972
38.2028
38.2088
38.2153
38.2222
38.2296
38.2373
38.2454
38.2539
38.2628
38.272
38.2816
38.2915
38.3017
38.3122
38.323
38.3341
38.3455
38.3571
38.369
38.3811
38.3935
38.406
38.4188
38.4317
38.4448
38.4581
38.4716
38.4852
38.499
38.5129
38.5269
38.541
38.5552
38.5695
38.5839
38.5984
38.6129
38.6275
38.6421
38.6567
38.6714
38.6861
38.7008
38.7155
38.7302
38.7449
38.7595
38.7742
38.7887
38.8033
38.8177
38.8322
38.8465
38.8608
38.8749
38.889
38.903
38.9169
38.9306
38.9443
38.9578
38.9712
38.9844
38.9975
39.0105
39.0233
39.0359
39.0484
39.0607
39.0728
39.0848
39.0965
39.1081
39.1195
39.1306
39.1416
39.1524
39.1629
39.1732
39.1833
39.1932
39.2028
39.2122
39.2214
39.2303
39.239
39.2474
39.2556
39.2635
39.2712
39.2786
39.2857
39.2926
39.2992
39.3056
39.3116
39.3174
39.3229
39.3282
39.3331
39.3378
39.3422
39.3463
39.3501
39.3537
39.3569
39.3599
39.3625
39.3649
39.3669
39.3687
39.3702
39.3714
39.3723
39.3729
39.3732
48.8783
48.8755
48.8697
48.8613
48.8503
48.837
48.8214
48.8038
48.7842
48.7626
48.7392
48.7138
48.6867
48.6577
48.6269
48.5943
48.56
48.5238
48.4859
48.4463
48.4049
48.3618
48.317
48.2704
48.2223
48.1724
48.1209
48.0678
48.0132
47.9569
47.8991
47.8399
47.7791
47.7168
47.6531
47.5881
47.5216
47.4538
47.3847
47.3142
47.2426
47.1697
47.0956
47.0203
46.9439
46.8665
46.7879
46.7084
46.6278
46.5463
46.4638
46.3805
46.2963
46.2113
46.1255
46.039
45.9517
45.8638
45.7752
45.686
45.5963
45.506
45.4152
45.3239
45.2322
45.1402
45.0477
44.955
44.8619
44.7686
44.6751
44.5814
44.4876
44.3937
44.2996
44.2055
44.1115
44.0174
43.9234
43.8294
43.7356
43.642
43.5485
43.4552
43.3622
43.2695
43.177
43.0849
42.9931
42.9018
42.8108
42.7203
42.6302
42.5407
42.4516
42.3631
42.2752
42.1879
42.1012
42.0151
41.9297
41.845
41.761
41.6778
41.5952
41.5135
41.4325
41.3524
41.273
41.1945
41.1169
41.0401
40.9642
40.8892
40.8152
40.742
40.6698
40.5986
40.5283
40.459
40.3906
40.3233
40.257
40.1917
40.1274
40.0641
40.0019
39.9407
39.8806
39.8215
39.7635
39.7065
39.6506
39.5958
39.542
39.4893
39.4377
39.3872
39.3377
39.2893
39.242
39.1958
39.1506
39.1066
39.0635
39.0216
38.9807
38.9409
38.9021
38.8643
38.8277
38.792
38.7574
38.7238
38.6913
38.6597
38.6292
38.5996
38.5711
38.5436
38.517
38.4914
38.4667
38.443
38.4203
38.3985
38.3776
38.3576
38.3385
38.3204
38.3031
38.2867
38.2711
38.2564
38.2425
38.2295
38.2173
38.2059
38.1953
38.1854
38.1764
38.1681
38.1605
38.1537
38.1476
38.1422
38.1375
38.1335
38.1301
38.1274
38.1254
38.124
38.1232
38.123
38.1234
38.1244
38.126
38.1281
38.1308
38.134
38.1377
38.1419
38.1466
38.1518
38.1574
38.1635
38.1701
38.177
38.1844
38.1922
38.2004
38.209
38.2179
38.2272
38.2368
38.2467
38.257
38.2676
38.2784
38.2896
38.301
38.3127
38.3246
38.3368
38.3491
38.3617
38.3745
38.3875
38.4007
38.4141
38.4276
38.4412
38.455
38.469
38.483
38.4972
38.5115
38.5258
38.5402
38.5547
38.5693
38.5839
38.5986
38.6133
38.628
38.6427
38.6575
38.6722
38.6869
38.7016
38.7163
38.731
38.7456
38.7602
38.7747
38.7891
38.8035
38.8178
38.832
38.8461
38.8601
38.874
38.8878
38.9015
38.915
38.9284
38.9417
38.9548
38.9678
38.9806
38.9933
39.0058
39.0181
39.0303
39.0422
39.054
39.0656
39.077
39.0882
39.0992
39.1099
39.1205
39.1308
39.1409
39.1508
39.1605
39.1699
39.1791
39.188
39.1967
39.2051
39.2133
39.2213
39.2289
39.2364
39.2435
39.2504
39.257
39.2634
39.2695
39.2753
39.2808
39.286
39.291
39.2957
39.3001
39.3042
39.308
39.3116
39.3148
39.3178
39.3204
39.3228
39.3249
39.3266
39.3281
39.3293
39.3302
39.3308
39.3311
48.8243
48.8215
48.8157
48.8074
48.7964
48.7831
48.7676
48.75
48.7303
48.7087
48.6851
48.6597
48.6324
48.6034
48.5725
48.5398
48.5053
48.4691
48.431
48.3913
48.3498
48.3065
48.2616
48.215
48.1667
48.1168
48.0652
48.012
47.9572
47.9009
47.843
47.7836
47.7228
47.6604
47.5967
47.5315
47.4649
47.397
47.3278
47.2573
47.1856
47.1126
47.0384
46.9631
46.8866
46.809
46.7304
46.6508
46.5701
46.4885
46.406
46.3226
46.2383
46.1532
46.0673
45.9807
45.8934
45.8053
45.7167
45.6274
45.5376
45.4472
45.3563
45.265
45.1733
45.0811
44.9886
44.8958
44.8027
44.7093
44.6157
44.522
44.4281
44.334
44.2399
44.1458
44.0516
43.9575
43.8634
43.7695
43.6756
43.5819
43.4883
43.395
43.3019
43.2091
43.1167
43.0245
42.9327
42.8413
42.7503
42.6597
42.5696
42.48
42.391
42.3024
42.2145
42.1271
42.0404
41.9543
41.8689
41.7842
41.7002
41.6169
41.5343
41.4526
41.3716
41.2914
41.2121
41.1336
41.0559
40.9791
40.9032
40.8283
40.7542
40.6811
40.6089
40.5376
40.4673
40.398
40.3297
40.2624
40.1961
40.1308
40.0665
40.0033
39.9411
39.8799
39.8198
39.7608
39.7028
39.6458
39.59
39.5352
39.4815
39.4288
39.3773
39.3268
39.2773
39.229
39.1817
39.1356
39.0905
39.0464
39.0034
38.9615
38.9207
38.8809
38.8422
38.8045
38.7679
38.7323
38.6977
38.6642
38.6317
38.6002
38.5698
38.5403
38.5118
38.4843
38.4578
38.4323
38.4077
38.3841
38.3614
38.3396
38.3188
38.2989
38.2799