/*--------------------------------*- C++ -*----------------------------------*\
| =========                 |                                                 |
| \\      /  F ield         | OpenFOAM: The Open Source CFD Toolbox           |
|  \\    /   O peration     | Version:  2212                                  |
|   \\  /    A nd           | Website:  www.openfoam.com                      |
|    \\/     M anipulation  |                                                 |
\*---------------------------------------------------------------------------*/
FoamFile
{
    version     2.0;
    format      ascii;
    arch        "LSB;label=32;scalar=64";
    class       volScalarField;
    location    "800";
    object      p_rgh_0;
}
// * * * * * * * * * * * * * * * * * * * * * * * * * * * * * * * * * * * * * //

dimensions      [1 -1 -2 0 0 0 0];

internalField   nonuniform List<scalar> 
204800
(
49.3961
49.3948
49.3911
49.3854
49.3781
49.3686
49.3567
49.3423
49.3254
49.3061
49.2844
49.2606
49.2347
49.2068
49.177
49.1453
49.1117
49.0762
49.0389
48.9997
48.9588
48.9161
48.8716
48.8254
48.7775
48.7279
48.6766
48.6237
48.5692
48.5131
48.4554
48.3962
48.3355
48.2732
48.2096
48.1445
48.078
48.0102
47.941
47.8706
47.7988
47.7259
47.6517
47.5763
47.4998
47.4222
47.3436
47.2639
47.1832
47.1015
47.0189
46.9354
46.851
46.7658
46.6798
46.593
46.5055
46.4174
46.3285
46.2391
46.1491
46.0585
45.9675
45.8759
45.784
45.6916
45.5989
45.5058
45.4124
45.3188
45.225
45.1309
45.0368
44.9424
44.848
44.7536
44.6591
44.5647
44.4702
44.3759
44.2817
44.1876
44.0937
44
43.9065
43.8133
43.7204
43.6279
43.5356
43.4438
43.3523
43.2613
43.1708
43.0807
42.9912
42.9022
42.8137
42.7259
42.6386
42.552
42.4661
42.3808
42.2963
42.2124
42.1293
42.047
41.9655
41.8847
41.8048
41.7257
41.6475
41.5701
41.4936
41.418
41.3433
41.2695
41.1967
41.1248
41.0539
40.984
40.915
40.847
40.7801
40.7141
40.6492
40.5852
40.5224
40.4605
40.3997
40.34
40.2813
40.2237
40.1671
40.1116
40.0572
40.0038
39.9515
39.9003
39.8502
39.8011
39.7532
39.7063
39.6604
39.6157
39.572
39.5294
39.4878
39.4473
39.4078
39.3694
39.3321
39.2958
39.2605
39.2263
39.193
39.1608
39.1296
39.0995
39.0703
39.0421
39.0148
38.9886
38.9633
38.939
38.9156
38.8932
38.8717
38.8511
38.8314
38.8126
38.7947
38.7777
38.7615
38.7462
38.7318
38.7181
38.7053
38.6933
38.6821
38.6717
38.6621
38.6532
38.6451
38.6378
38.6311
38.6252
38.6199
38.6154
38.6115
38.6083
38.6057
38.6038
38.6025
38.6019
38.6018
38.6023
38.6034
38.605
38.6072
38.6099
38.6132
38.6169
38.6212
38.6259
38.6311
38.6368
38.6429
38.6495
38.6564
38.6638
38.6716
38.6797
38.6883
38.6972
38.7064
38.716
38.7259
38.7361
38.7466
38.7573
38.7684
38.7797
38.7913
38.8032
38.8152
38.8275
38.84
38.8527
38.8655
38.8786
38.8918
38.9052
38.9187
38.9323
38.9461
38.96
38.974
38.988
39.0022
39.0165
39.0308
39.0451
39.0596
39.074
39.0885
39.103
39.1175
39.132
39.1466
39.1611
39.1755
39.19
39.2044
39.2188
39.2331
39.2473
39.2615
39.2756
39.2897
39.3036
39.3175
39.3312
39.3448
39.3583
39.3717
39.385
39.3981
39.4111
39.424
39.4367
39.4492
39.4616
39.4738
39.4858
39.4976
39.5093
39.5208
39.5321
39.5431
39.554
39.5647
39.5751
39.5854
39.5954
39.6052
39.6148
39.6241
39.6332
39.6421
39.6507
39.659
39.6672
39.675
39.6827
39.69
39.6971
39.7039
39.7105
39.7168
39.7228
39.7286
39.7341
39.7393
39.7442
39.7489
39.7532
39.7573
39.7611
39.7646
39.7678
39.7707
39.7734
39.7757
39.7778
39.7796
39.781
39.7822
39.7831
39.7837
39.784
49.3173
49.3144
49.3088
49.301
49.2913
49.2794
49.2655
49.2494
49.2312
49.211
49.1888
49.1646
49.1384
49.1104
49.0805
49.0487
49.0151
48.9797
48.9424
48.9033
48.8624
48.8198
48.7754
48.7292
48.6814
48.6318
48.5807
48.5278
48.4734
48.4174
48.3598
48.3007
48.24
48.1779
48.1144
48.0494
47.9831
47.9154
47.8463
47.776
47.7044
47.6315
47.5575
47.4822
47.4059
47.3284
47.2499
47.1703
47.0898
47.0082
46.9258
46.8424
46.7582
46.6731
46.5873
46.5007
46.4134
46.3253
46.2367
46.1474
46.0576
45.9672
45.8763
45.7849
45.6931
45.6009
45.5083
45.4154
45.3222
45.2288
45.1351
45.0412
44.9472
44.8531
44.7588
44.6646
44.5703
44.476
44.3817
44.2876
44.1935
44.0996
44.0059
43.9124
43.8191
43.726
43.6333
43.5409
43.4488
43.3571
43.2659
43.175
43.0846
42.9947
42.9054
42.8165
42.7282
42.6406
42.5535
42.467
42.3813
42.2962
42.2118
42.1281
42.0451
41.963
41.8816
41.801
41.7212
41.6422
41.5642
41.4869
41.4106
41.3351
41.2606
41.1869
41.1143
41.0425
40.9717
40.9019
40.8331
40.7652
40.6984
40.6325
40.5677
40.5039
40.4412
40.3794
40.3188
40.2591
40.2006
40.143
40.0866
40.0312
39.9769
39.9236
39.8715
39.8204
39.7703
39.7214
39.6735
39.6267
39.5809
39.5363
39.4926
39.4501
39.4086
39.3682
39.3288
39.2905
39.2532
39.217
39.1818
39.1476
39.1145
39.0823
39.0512
39.0211
38.992
38.9638
38.9366
38.9105
38.8852
38.861
38.8376
38.8152
38.7938
38.7732
38.7536
38.7348
38.717
38.7
38.6839
38.6686
38.6542
38.6406
38.6278
38.6159
38.6047
38.5943
38.5847
38.5759
38.5678
38.5604
38.5538
38.5479
38.5426
38.5381
38.5343
38.5311
38.5285
38.5266
38.5253
38.5247
38.5246
38.5251
38.5262
38.5278
38.53
38.5327
38.536
38.5397
38.544
38.5487
38.5539
38.5596
38.5657
38.5723
38.5792
38.5866
38.5944
38.6025
38.611
38.6199
38.6291
38.6387
38.6486
38.6588
38.6692
38.68
38.6911
38.7024
38.714
38.7258
38.7378
38.7501
38.7625
38.7752
38.788
38.8011
38.8143
38.8276
38.8411
38.8547
38.8685
38.8823
38.8963
38.9104
38.9245
38.9388
38.953
38.9674
38.9818
38.9962
39.0107
39.0252
39.0397
39.0541
39.0686
39.0831
39.0976
39.112
39.1264
39.1407
39.155
39.1693
39.1834
39.1975
39.2115
39.2254
39.2393
39.253
39.2666
39.2801
39.2935
39.3067
39.3198
39.3328
39.3456
39.3583
39.3708
39.3831
39.3953
39.4073
39.4191
39.4308
39.4422
39.4535
39.4646
39.4754
39.4861
39.4965
39.5067
39.5167
39.5265
39.5361
39.5454
39.5545
39.5633
39.5719
39.5803
39.5884
39.5962
39.6038
39.6112
39.6183
39.6251
39.6317
39.6379
39.644
39.6497
39.6552
39.6604
39.6653
39.6699
39.6743
39.6784
39.6821
39.6856
39.6889
39.6918
39.6944
39.6968
39.6988
39.7006
39.7021
39.7032
39.7041
39.7047
39.705
49.3002
49.2973
49.2919
49.2843
49.2746
49.2627
49.2488
49.2326
49.2144
49.1941
49.1719
49.1476
49.1215
49.0934
49.0635
49.0317
48.998
48.9625
48.9252
48.8861
48.8452
48.8025
48.7581
48.7119
48.6641
48.6145
48.5633
48.5105
48.456
48.4
48.3424
48.2833
48.2226
48.1605
48.097
48.032
47.9656
47.8979
47.8288
47.7585
47.6869
47.614
47.5399
47.4647
47.3884
47.3109
47.2324
47.1528
47.0722
46.9907
46.9082
46.8248
46.7406
46.6555
46.5697
46.4831
46.3958
46.3077
46.2191
46.1298
46.04
45.9496
45.8587
45.7673
45.6755
45.5833
45.4907
45.3978
45.3046
45.2111
45.1175
45.0236
44.9296
44.8354
44.7412
44.6469
44.5526
44.4583
44.3641
44.2699
44.1759
44.082
43.9882
43.8947
43.8014
43.7084
43.6157
43.5232
43.4312
43.3395
43.2482
43.1574
43.067
42.9771
42.8877
42.7989
42.7106
42.623
42.5359
42.4494
42.3637
42.2786
42.1942
42.1105
42.0276
41.9454
41.864
41.7834
41.7037
41.6247
41.5466
41.4694
41.3931
41.3176
41.2431
41.1695
41.0968
41.025
40.9543
40.8845
40.8156
40.7478
40.681
40.6151
40.5503
40.4865
40.4238
40.3621
40.3014
40.2418
40.1832
40.1257
40.0693
40.0139
39.9596
39.9064
39.8542
39.8031
39.7531
39.7041
39.6563
39.6095
39.5637
39.5191
39.4755
39.433
39.3915
39.3511
39.3117
39.2734
39.2362
39.1999
39.1647
39.1306
39.0974
39.0653
39.0342
39.0041
38.975
38.9468
38.9197
38.8935
38.8683
38.844
38.8207
38.7983
38.7769
38.7564
38.7367
38.718
38.7001
38.6832
38.6671
38.6518
38.6374
38.6238
38.6111
38.5991
38.588
38.5776
38.568
38.5592
38.5511
38.5438
38.5371
38.5312
38.526
38.5215
38.5177
38.5145
38.5119
38.51
38.5088
38.5081
38.508
38.5086
38.5097
38.5113
38.5135
38.5162
38.5195
38.5233
38.5275
38.5323
38.5375
38.5432
38.5493
38.5558
38.5628
38.5702
38.578
38.5861
38.5947
38.6035
38.6128
38.6223
38.6322
38.6424
38.6529
38.6637
38.6748
38.6861
38.6977
38.7095
38.7215
38.7338
38.7463
38.7589
38.7718
38.7848
38.798
38.8114
38.8249
38.8385
38.8523
38.8661
38.8801
38.8942
38.9083
38.9226
38.9368
38.9512
38.9656
38.98
38.9945
39.009
39.0235
39.038
39.0525
39.067
39.0814
39.0959
39.1102
39.1246
39.1389
39.1531
39.1673
39.1814
39.1954
39.2093
39.2231
39.2369
39.2505
39.264
39.2773
39.2906
39.3037
39.3167
39.3295
39.3422
39.3547
39.367
39.3792
39.3912
39.4031
39.4147
39.4262
39.4374
39.4485
39.4593
39.47
39.4804
39.4907
39.5007
39.5104
39.52
39.5293
39.5384
39.5472
39.5558
39.5642
39.5723
39.5802
39.5878
39.5951
39.6022
39.609
39.6156
39.6219
39.6279
39.6336
39.6391
39.6443
39.6492
39.6539
39.6582
39.6623
39.6661
39.6696
39.6728
39.6757
39.6784
39.6807
39.6828
39.6845
39.686
39.6872
39.6881
39.6886
39.6889
49.2279
49.2248
49.2189
49.2105
49.1997
49.1867
49.1716
49.1545
49.1355
49.1145
49.0918
49.0671
49.0407
49.0124
48.9823
48.9504
48.9167
48.8811
48.8438
48.8047
48.7637
48.7211
48.6766
48.6305
48.5827
48.5332
48.482
48.4292
48.3748
48.3188
48.2612
48.2021
48.1416
48.0795
48.016
47.9511
47.8848
47.8171
47.7482
47.6779
47.6063
47.5336
47.4596
47.3844
47.3082
47.2308
47.1523
47.0728
46.9923
46.9109
46.8285
46.7452
46.6611
46.5761
46.4904
46.4039
46.3166
46.2287
46.1402
46.051
45.9612
45.8709
45.7801
45.6889
45.5972
45.5051
45.4126
45.3198
45.2267
45.1334
45.0398
44.9461
44.8522
44.7581
44.664
44.5698
44.4757
44.3815
44.2874
44.1933
44.0994
44.0056
43.912
43.8186
43.7254
43.6325
43.5398
43.4475
43.3556
43.264
43.1729
43.0821
42.9919
42.9021
42.8128
42.7241
42.636
42.5484
42.4614
42.3751
42.2894
42.2045
42.1202
42.0366
41.9538
41.8717
41.7905
41.71
41.6303
41.5515
41.4735
41.3964
41.3202
41.2448
41.1704
41.0969
41.0243
40.9527
40.882
40.8123
40.7435
40.6758
40.6091
40.5433
40.4786
40.4149
40.3523
40.2907
40.2301
40.1706
40.1121
40.0547
39.9983
39.943
39.8888
39.8357
39.7836
39.7326
39.6826
39.6338
39.586
39.5392
39.4936
39.449
39.4055
39.363
39.3216
39.2813
39.242
39.2038
39.1666
39.1304
39.0953
39.0612
39.0281
38.9961
38.965
38.935
38.9059
38.8778
38.8507
38.8246
38.7995
38.7753
38.752
38.7297
38.7083
38.6878
38.6682
38.6495
38.6317
38.6148
38.5987
38.5835
38.5691
38.5556
38.5429
38.531
38.5198
38.5095
38.4999
38.4912
38.4831
38.4758
38.4692
38.4633
38.4581
38.4536
38.4498
38.4467
38.4442
38.4423
38.441
38.4404
38.4403
38.4409
38.442
38.4437
38.4459
38.4486
38.4519
38.4557
38.46
38.4647
38.47
38.4756
38.4818
38.4883
38.4953
38.5027
38.5105
38.5187
38.5272
38.5361
38.5453
38.5549
38.5648
38.575
38.5855
38.5963
38.6073
38.6186
38.6302
38.642
38.6541
38.6663
38.6788
38.6915
38.7043
38.7174
38.7306
38.7439
38.7574
38.771
38.7848
38.7987
38.8126
38.8267
38.8408
38.8551
38.8693
38.8837
38.8981
38.9125
38.927
38.9414
38.9559
38.9704
38.9849
38.9994
39.0138
39.0283
39.0426
39.057
39.0713
39.0855
39.0997
39.1137
39.1277
39.1417
39.1555
39.1692
39.1828
39.1963
39.2096
39.2229
39.236
39.2489
39.2617
39.2744
39.2869
39.2993
39.3114
39.3234
39.3352
39.3469
39.3583
39.3696
39.3806
39.3915
39.4021
39.4126
39.4228
39.4328
39.4425
39.4521
39.4614
39.4705
39.4793
39.4879
39.4963
39.5044
39.5122
39.5198
39.5272
39.5342
39.5411
39.5476
39.5539
39.5599
39.5656
39.5711
39.5763
39.5812
39.5859
39.5902
39.5943
39.5981
39.6016
39.6048
39.6077
39.6103
39.6127
39.6147
39.6165
39.618
39.6191
39.62
39.6206
39.6209
49.2001
49.1972
49.1914
49.1832
49.1724
49.1595
49.1444
49.1273
49.1082
49.0873
49.0645
49.0398
49.0133
48.985
48.9548
48.9229
48.8891
48.8535
48.8161
48.7769
48.7359
48.6932
48.6487
48.6025
48.5547
48.5051
48.4539
48.401
48.3466
48.2906
48.233
48.1739
48.1133
48.0512
47.9877
47.9227
47.8564
47.7887
47.7197
47.6494
47.5778
47.505
47.431
47.3559
47.2796
47.2022
47.1237
47.0442
46.9637
46.8822
46.7998
46.7165
46.6323
46.5474
46.4616
46.3751
46.2878
46.1999
46.1113
46.0221
45.9323
45.842
45.7512
45.6599
45.5682
45.4761
45.3836
45.2908
45.1977
45.1043
45.0107
44.917
44.823
44.729
44.6349
44.5407
44.4465
44.3523
44.2582
44.1641
44.0702
43.9764
43.8827
43.7893
43.6961
43.6032
43.5106
43.4183
43.3263
43.2348
43.1436
43.0529
42.9626
42.8728
42.7836
42.6948
42.6067
42.5191
42.4321
42.3458
42.2602
42.1752
42.0909
42.0073
41.9245
41.8425
41.7612
41.6807
41.6011
41.5222
41.4443
41.3671
41.2909
41.2156
41.1412
41.0677
40.9951
40.9235
40.8528
40.7831
40.7144
40.6467
40.5799
40.5142
40.4495
40.3859
40.3232
40.2616
40.201
40.1415
40.0831
40.0257
39.9693
39.9141
39.8599
39.8067
39.7547
39.7037
39.6538
39.6049
39.5571
39.5104
39.4648
39.4202
39.3768
39.3343
39.2929
39.2526
39.2134
39.1751
39.138
39.1018
39.0667
39.0327
38.9996
38.9676
38.9365
38.9065
38.8775
38.8494
38.8224
38.7963
38.7711
38.7469
38.7237
38.7014
38.68
38.6596
38.64
38.6213
38.6036
38.5867
38.5706
38.5554
38.5411
38.5276
38.5149
38.503
38.4919
38.4816
38.4721
38.4633
38.4553
38.448
38.4414
38.4355
38.4304
38.4259
38.4221
38.419
38.4165
38.4146
38.4134
38.4128
38.4128
38.4133
38.4145
38.4162
38.4184
38.4212
38.4245
38.4283
38.4326
38.4374
38.4426
38.4483
38.4545
38.461
38.468
38.4755
38.4833
38.4914
38.5
38.5089
38.5181
38.5277
38.5376
38.5479
38.5584
38.5692
38.5803
38.5916
38.6032
38.615
38.6271
38.6394
38.6518
38.6645
38.6774
38.6904
38.7037
38.717
38.7305
38.7442
38.7579
38.7718
38.7858
38.7999
38.814
38.8283
38.8426
38.8569
38.8713
38.8858
38.9002
38.9147
38.9292
38.9437
38.9582
38.9727
38.9872
39.0016
39.016
39.0303
39.0446
39.0589
39.073
39.0871
39.1011
39.1151
39.1289
39.1426
39.1562
39.1697
39.1831
39.1963
39.2094
39.2224
39.2352
39.2479
39.2604
39.2727
39.2849
39.2969
39.3088
39.3204
39.3318
39.3431
39.3542
39.365
39.3757
39.3861
39.3963
39.4063
39.4161
39.4257
39.435
39.4441
39.4529
39.4615
39.4698
39.478
39.4858
39.4934
39.5008
39.5078
39.5147
39.5212
39.5275
39.5335
39.5393
39.5447
39.5499
39.5548
39.5595
39.5638
39.5679
39.5717
39.5752
39.5784
39.5813
39.5839
39.5863
39.5883
39.5901
39.5916
39.5928
39.5936
39.5942
39.5945
49.1345
49.1315
49.1255
49.1168
49.1056
49.0921
49.0765
49.0589
49.0393
49.018
48.9948
48.9699
48.9432
48.9146
48.8843
48.8522
48.8183
48.7826
48.7451
48.7058
48.6648
48.622
48.5776
48.5313
48.4834
48.4339
48.3827
48.3298
48.2754
48.2193
48.1618
48.1027
48.0421
47.98
47.9165
47.8516
47.7853
47.7176
47.6486
47.5783
47.5068
47.434
47.3601
47.2849
47.2087
47.1313
47.0529
46.9734
46.8929
46.8115
46.7291
46.6459
46.5618
46.4768
46.3911
46.3046
46.2174
46.1295
46.041
45.9518
45.8621
45.7719
45.6811
45.5899
45.4982
45.4061
45.3137
45.221
45.1279
45.0346
44.9411
44.8474
44.7535
44.6595
44.5655
44.4713
44.3772
44.2831
44.189
44.095
44.0011
43.9074
43.8138
43.7205
43.6274
43.5345
43.442
43.3497
43.2578
43.1663
43.0752
42.9846
42.8944
42.8047
42.7155
42.6268
42.5387
42.4513
42.3644
42.2781
42.1925
42.1076
42.0234
41.9399
41.8572
41.7752
41.694
41.6136
41.534
41.4553
41.3774
41.3003
41.2242
41.1489
41.0746
41.0011
40.9286
40.8571
40.7865
40.7169
40.6482
40.5806
40.5139
40.4483
40.3837
40.3201
40.2575
40.196
40.1355
40.076
40.0176
39.9603
39.904
39.8488
39.7947
39.7416
39.6897
39.6387
39.5889
39.5401
39.4924
39.4458
39.4002
39.3557
39.3123
39.2699
39.2286
39.1884
39.1491
39.111
39.0739
39.0378
39.0028
38.9688
38.9358
38.9038
38.8728
38.8429
38.8139
38.7859
38.7589
38.7328
38.7077
38.6836
38.6604
38.6382
38.6169
38.5964
38.5769
38.5583
38.5406
38.5237
38.5078
38.4926
38.4783
38.4648
38.4522
38.4404
38.4293
38.419
38.4096
38.4008
38.3928
38.3856
38.3791
38.3732
38.3681
38.3637
38.3599
38.3568
38.3544
38.3526
38.3514
38.3508
38.3508
38.3514
38.3526
38.3543
38.3566
38.3594
38.3627
38.3665
38.3708
38.3756
38.3809
38.3866
38.3928
38.3994
38.4065
38.4139
38.4217
38.4299
38.4385
38.4474
38.4567
38.4663
38.4762
38.4865
38.497
38.5078
38.5189
38.5303
38.5419
38.5537
38.5658
38.5781
38.5906
38.6033
38.6162
38.6292
38.6424
38.6558
38.6693
38.683
38.6968
38.7106
38.7246
38.7387
38.7529
38.7671
38.7814
38.7958
38.8102
38.8247
38.8391
38.8536
38.8681
38.8826
38.8971
38.9116
38.9261
38.9405
38.9549
38.9693
38.9836
38.9978
39.012
39.0261
39.0401
39.054
39.0678
39.0816
39.0952
39.1087
39.122
39.1353
39.1484
39.1614
39.1742
39.1868
39.1994
39.2117
39.2239
39.2359
39.2477
39.2594
39.2708
39.2821
39.2931
39.304
39.3146
39.3251
39.3353
39.3453
39.3551
39.3646
39.3739
39.383
39.3918
39.4004
39.4088
39.4169
39.4248
39.4324
39.4397
39.4468
39.4536
39.4601
39.4664
39.4724
39.4782
39.4837
39.4888
39.4938
39.4984
39.5028
39.5068
39.5106
39.5141
39.5173
39.5202
39.5229
39.5252
39.5273
39.529
39.5305
39.5317
39.5326
39.5331
39.5334
49.0997
49.0968
49.0909
49.0823
49.0712
49.0578
49.0422
49.0247
49.0052
48.9839
48.9607
48.9357
48.9089
48.8804
48.85
48.8178
48.7838
48.748
48.7104
48.6711
48.63
48.5872
48.5426
48.4963
48.4484
48.3987
48.3475
48.2946
48.2401
48.184
48.1264
48.0672
48.0066
47.9445
47.8809
47.8159
47.7496
47.6819
47.6128
47.5425
47.4709
47.3981
47.3241
47.2489
47.1726
47.0952
47.0167
46.9372
46.8567
46.7752
46.6928
46.6095
46.5254
46.4404
46.3546
46.2681
46.1808
46.0929
46.0043
45.9152
45.8254
45.7351
45.6443
45.553
45.4613
45.3692
45.2768
45.184
45.0909
44.9976
44.904
44.8103
44.7164
44.6224
44.5283
44.4341
44.34
44.2458
44.1517
44.0577
43.9638
43.87
43.7764
43.6831
43.5899
43.497
43.4045
43.3122
43.2203
43.1288
43.0377
42.947
42.8568
42.767
42.6778
42.5892
42.5011
42.4136
42.3267
42.2404
42.1548
42.0699
41.9857
41.9022
41.8194
41.7374
41.6562
41.5758
41.4963
41.4175
41.3396
41.2626
41.1864
41.1112
41.0368
40.9634
40.8909
40.8194
40.7488
40.6792
40.6105
40.5429
40.4763
40.4106
40.346
40.2824
40.2199
40.1584
40.0979
40.0385
39.9801
39.9228
39.8665
39.8114
39.7572
39.7042
39.6522
39.6013
39.5515
39.5028
39.4551
39.4085
39.3629
39.3185
39.2751
39.2327
39.1914
39.1512
39.112
39.0739
39.0368
39.0008
38.9658
38.9318
38.8988
38.8669
38.836
38.806
38.7771
38.7491
38.7221
38.6961
38.6711
38.647
38.6238
38.6016
38.5803
38.56
38.5405
38.5219
38.5042
38.4874
38.4714
38.4563
38.4421
38.4286
38.416
38.4042
38.3932
38.383
38.3735
38.3648
38.3569
38.3497
38.3432
38.3374
38.3323
38.3279
38.3242
38.3211
38.3187
38.3169
38.3158
38.3152
38.3153
38.3159
38.3171
38.3189
38.3212
38.324
38.3274
38.3312
38.3356
38.3404
38.3457
38.3515
38.3577
38.3643
38.3714
38.3789
38.3867
38.3949
38.4035
38.4125
38.4218
38.4314
38.4414
38.4517
38.4622
38.4731
38.4842
38.4956
38.5072
38.5191
38.5312
38.5435
38.556
38.5687
38.5817
38.5947
38.608
38.6214
38.6349
38.6486
38.6624
38.6763
38.6903
38.7044
38.7186
38.7329
38.7472
38.7616
38.776
38.7905
38.805
38.8195
38.834
38.8485
38.8631
38.8776
38.8921
38.9065
38.9209
38.9353
38.9496
38.9639
38.978
38.9922
39.0062
39.0201
39.034
39.0477
39.0613
39.0748
39.0882
39.1015
39.1146
39.1276
39.1404
39.1531
39.1656
39.178
39.1902
39.2022
39.214
39.2257
39.2371
39.2484
39.2595
39.2703
39.281
39.2914
39.3016
39.3117
39.3214
39.331
39.3403
39.3494
39.3582
39.3669
39.3752
39.3833
39.3912
39.3988
39.4061
39.4132
39.42
39.4266
39.4329
39.4389
39.4447
39.4501
39.4553
39.4602
39.4649
39.4692
39.4733
39.4771
39.4806
39.4838
39.4867
39.4894
39.4917
39.4938
39.4955
39.497
39.4982
39.4991
39.4997
39.5
49.039
49.036
49.03
49.0213
49.01
48.9964
48.9806
48.9629
48.9431
48.9216
48.8982
48.873
48.8461
48.8173
48.7868
48.7544
48.7203
48.6844
48.6468
48.6073
48.5662
48.5233
48.4786
48.4323
48.3843
48.3346
48.2833
48.2303
48.1758
48.1197
48.062
48.0029
47.9422
47.88
47.8165
47.7515
47.6851
47.6174
47.5483
47.478
47.4064
47.3336
47.2595
47.1843
47.108
47.0306
46.9521
46.8726
46.7921
46.7106
46.6282
46.5449
46.4607
46.3758
46.29
46.2035
46.1162
46.0283
45.9397
45.8506
45.7608
45.6705
45.5797
45.4885
45.3968
45.3047
45.2122
45.1194
45.0264
44.9331
44.8395
44.7458
44.6519
44.5579
44.4638
44.3697
44.2755
44.1814
44.0873
43.9933
43.8994
43.8057
43.7121
43.6188
43.5257
43.4328
43.3403
43.248
43.1562
43.0647
42.9736
42.8829
42.7927
42.7031
42.6139
42.5252
42.4372
42.3497
42.2628
42.1766
42.0911
42.0062
41.922
41.8386
41.7558
41.6739
41.5927
41.5124
41.4328
41.3541
41.2763
41.1993
41.1232
41.048
40.9737
40.9003
40.8279
40.7564
40.6858
40.6163
40.5477
40.4801
40.4135
40.3479
40.2834
40.2198
40.1573
40.0959
40.0355
39.9761
39.9178
39.8605
39.8043
39.7492
39.6952
39.6422
39.5903
39.5394
39.4897
39.441
39.3933
39.3468
39.3013
39.2569
39.2136
39.1713
39.1301
39.0899
39.0508
39.0127
38.9757
38.9397
38.9048
38.8708
38.8379
38.8061
38.7752
38.7453
38.7164
38.6885
38.6616
38.6356
38.6107
38.5866
38.5635
38.5414
38.5201
38.4998
38.4804
38.4619
38.4442
38.4275
38.4116
38.3965
38.3823
38.3689
38.3564
38.3446
38.3337
38.3235
38.3141
38.3054
38.2975
38.2904
38.2839
38.2782
38.2732
38.2688
38.2652
38.2621
38.2598
38.258
38.2569
38.2564
38.2565
38.2572
38.2584
38.2602
38.2626
38.2655
38.2688
38.2728
38.2772
38.282
38.2874
38.2932
38.2994
38.3061
38.3132
38.3207
38.3286
38.3368
38.3455
38.3545
38.3638
38.3735
38.3835
38.3938
38.4044
38.4152
38.4264
38.4378
38.4495
38.4614
38.4735
38.4858
38.4984
38.5111
38.5241
38.5372
38.5505
38.5639
38.5774
38.5911
38.605
38.6189
38.6329
38.6471
38.6613
38.6756
38.6899
38.7043
38.7188
38.7332
38.7477
38.7623
38.7768
38.7914
38.8059
38.8204
38.8349
38.8494
38.8638
38.8782
38.8925
38.9068
38.921
38.9351
38.9492
38.9631
38.977
38.9907
39.0043
39.0179
39.0313
39.0445
39.0577
39.0706
39.0835
39.0962
39.1087
39.1211
39.1333
39.1453
39.1571
39.1688
39.1803
39.1915
39.2026
39.2135
39.2242
39.2346
39.2448
39.2549
39.2646
39.2742
39.2835
39.2926
39.3015
39.3101
39.3184
39.3266
39.3344
39.342
39.3494
39.3565
39.3633
39.3699
39.3762
39.3822
39.3879
39.3934
39.3986
39.4035
39.4082
39.4125
39.4166
39.4204
39.4239
39.4271
39.43
39.4327
39.435
39.4371
39.4388
39.4403
39.4415
39.4424
39.443
39.4433
48.9995
48.9966
48.9907
48.9821
48.9709
48.9575
48.9418
48.9241
48.9045
48.883
48.8596
48.8344
48.8074
48.7786
48.748
48.7156
48.6814
48.6454
48.6076
48.5681
48.5268
48.4838
48.4391
48.3927
48.3446
48.2949
48.2435
48.1904
48.1358
48.0796
48.0219
47.9627
47.9019
47.8397
47.776
47.711
47.6445
47.5767
47.5076
47.4372
47.3656
47.2927
47.2186
47.1433
47.0669
46.9894
46.9109
46.8313
46.7507
46.6692
46.5867
46.5033
46.4191
46.3341
46.2482
46.1616
46.0743
45.9863
45.8977
45.8085
45.7187
45.6283
45.5374
45.4461
45.3544
45.2622
45.1697
45.0769
44.9838
44.8904
44.7968
44.703
44.6091
44.515
44.4209
44.3267
44.2325
44.1383
44.0442
43.9501
43.8562
43.7624
43.6688
43.5754
43.4822
43.3893
43.2968
43.2045
43.1126
43.021
42.9299
42.8392
42.749
42.6593
42.5701
42.4814
42.3933
42.3058
42.219
42.1327
42.0471
41.9622
41.878
41.7946
41.7118
41.6299
41.5487
41.4683
41.3888
41.3101
41.2322
41.1552
41.0791
41.0039
40.9296
40.8562
40.7837
40.7123
40.6417
40.5722
40.5036
40.436
40.3694
40.3039
40.2393
40.1758
40.1133
40.0519
39.9915
39.9321
39.8738
39.8166
39.7604
39.7053
39.6513
39.5983
39.5464
39.4956
39.4459
39.3972
39.3496
39.3031
39.2576
39.2133
39.1699
39.1277
39.0865
39.0464
39.0073
38.9693
38.9323
38.8963
38.8614
38.8275
38.7947
38.7628
38.732
38.7022
38.6733
38.6455
38.6186
38.5927
38.5677
38.5437
38.5207
38.4986
38.4774
38.4571
38.4377
38.4193
38.4017
38.385
38.3691
38.3541
38.3399
38.3266
38.3141
38.3024
38.2915
38.2814
38.272
38.2634
38.2556
38.2484
38.242
38.2364
38.2314
38.2271
38.2234
38.2205
38.2182
38.2165
38.2154
38.2149
38.2151
38.2158
38.2171
38.2189
38.2213
38.2243
38.2277
38.2317
38.2361
38.241
38.2464
38.2523
38.2585
38.2653
38.2724
38.2799
38.2879
38.2962
38.3049
38.3139
38.3233
38.333
38.343
38.3534
38.364
38.3749
38.3861
38.3975
38.4092
38.4212
38.4334
38.4457
38.4583
38.4711
38.4841
38.4972
38.5105
38.524
38.5376
38.5513
38.5652
38.5791
38.5932
38.6074
38.6216
38.6359
38.6503
38.6647
38.6792
38.6937
38.7083
38.7228
38.7374
38.752
38.7665
38.7811
38.7956
38.8101
38.8246
38.839
38.8533
38.8676
38.8818
38.896
38.91
38.924
38.9379
38.9516
38.9653
38.9788
38.9923
39.0055
39.0187
39.0317
39.0446
39.0573
39.0698
39.0822
39.0944
39.1065
39.1183
39.13
39.1415
39.1528
39.1639
39.1747
39.1854
39.1959
39.2061
39.2162
39.226
39.2355
39.2449
39.254
39.2628
39.2715
39.2798
39.288
39.2958
39.3034
39.3108
39.3179
39.3247
39.3313
39.3376
39.3436
39.3494
39.3549
39.3601
39.365
39.3696
39.374
39.3781
39.3819
39.3854
39.3886
39.3915
39.3942
39.3965
39.3986
39.4004
39.4018
39.403
39.4039
39.4045
39.4048
48.9424
48.9395
48.9336
48.925
48.9138
48.9004
48.8847
48.8669
48.8472
48.8256
48.8021
48.7767
48.7496
48.7206
48.6899
48.6574
48.623
48.5869
48.5491
48.5094
48.4681
48.425
48.3802
48.3337
48.2855
48.2357
48.1842
48.1311
48.0764
48.0202
47.9624
47.9031
47.8423
47.78
47.7163
47.6512
47.5847
47.5168
47.4477
47.3772
47.3055
47.2325
47.1584
47.0831
47.0066
46.9291
46.8505
46.7709
46.6902
46.6087
46.5261
46.4427
46.3585
46.2734
46.1875
46.1009
46.0135
45.9255
45.8368
45.7475
45.6577
45.5673
45.4764
45.385
45.2933
45.2011
45.1085
45.0157
44.9225
44.8291
44.7355
44.6416
44.5477
44.4536
44.3594
44.2652
44.171
44.0768
43.9827
43.8886
43.7946
43.7008
43.6072
43.5138
43.4206
43.3277
43.2351
43.1428
43.0509
42.9594
42.8682
42.7776
42.6873
42.5976
42.5084
42.4197
42.3316
42.2441
42.1573
42.071
41.9854
41.9005
41.8164
41.7329
41.6502
41.5682
41.4871
41.4067
41.3272
41.2485
41.1706
41.0937
41.0176
40.9424
40.8681
40.7948
40.7223
40.6509
40.5804
40.5109
40.4423
40.3748
40.3082
40.2427
40.1782
40.1147
40.0522
39.9908
39.9305
39.8712
39.8129
39.7557
39.6996
39.6445
39.5905
39.5376
39.4858
39.435
39.3853
39.3367
39.2892
39.2427
39.1973
39.153
39.1097
39.0675
39.0264
38.9863
38.9473
38.9093
38.8724
38.8365
38.8017
38.7678
38.735
38.7032
38.6725
38.6427
38.6139
38.5861
38.5593
38.5334
38.5086
38.4846
38.4616
38.4396
38.4185
38.3982
38.3789
38.3605
38.343
38.3263
38.3105
38.2956
38.2815
38.2682
38.2558
38.2441
38.2333
38.2232
38.2139
38.2054
38.1976
38.1906
38.1842
38.1786
38.1737
38.1694
38.1659
38.163
38.1607
38.1591
38.158
38.1576
38.1578
38.1586
38.16
38.1619
38.1643
38.1673
38.1708
38.1748
38.1793
38.1843
38.1897
38.1956
38.202
38.2087
38.2159
38.2235
38.2315
38.2398
38.2486
38.2576
38.2671
38.2768
38.2869
38.2973
38.308
38.3189
38.3302
38.3417
38.3534
38.3654
38.3776
38.39
38.4026
38.4155
38.4285
38.4417
38.455
38.4685
38.4821
38.4959
38.5098
38.5238
38.5379
38.5521
38.5664
38.5807
38.5951
38.6096
38.6241
38.6386
38.6532
38.6678
38.6824
38.697
38.7116
38.7262
38.7407
38.7552
38.7697
38.7841
38.7985
38.8128
38.8271
38.8413
38.8553
38.8693
38.8832
38.897
38.9107
38.9243
38.9377
38.951
38.9642
38.9772
38.9901
39.0028
39.0154
39.0278
39.04
39.0521
39.0639
39.0756
39.0871
39.0984
39.1095
39.1204
39.1311
39.1416
39.1518
39.1619
39.1717
39.1813
39.1906
39.1997
39.2086
39.2172
39.2256
39.2338
39.2416
39.2493
39.2566
39.2637
39.2706
39.2772
39.2835
39.2895
39.2953
39.3008
39.306
39.3109
39.3155
39.3199
39.324
39.3278
39.3313
39.3345
39.3375
39.3401
39.3425
39.3445
39.3463
39.3478
39.3489
39.3498
39.3504
39.3507
48.9
48.8972
48.8914
48.8829
48.8719
48.8586
48.843
48.8254
48.8057
48.7841
48.7606
48.7353
48.7081
48.6791
48.6483
48.6156
48.5812
48.545
48.5071
48.4673
48.4259
48.3827
48.3378
48.2912
48.2429
48.193
48.1414
48.0882
48.0334
47.9771
47.9192
47.8598
47.7989
47.7365
47.6727
47.6075
47.5409
47.473
47.4037
47.3332
47.2613
47.1883
47.1141
47.0387
46.9621
46.8845
46.8058
46.7261
46.6454
46.5637
46.4811
46.3976
46.3132
46.228
46.1421
46.0553
45.9679
45.8798
45.791
45.7017
45.6117
45.5212
45.4303
45.3388
45.2469
45.1547
45.062
44.9691
44.8758
44.7823
44.6886
44.5947
44.5007
44.4065
44.3123
44.218
44.1237
44.0294
43.9352
43.8411
43.747
43.6532
43.5595
43.466
43.3728
43.2798
43.1871
43.0948
43.0028
42.9112
42.82
42.7293
42.639
42.5492
42.46
42.3713
42.2831
42.1956
42.1087
42.0224
41.9368
41.8518
41.7676
41.6841
41.6014
41.5194
41.4382
41.3578
41.2783
41.1995
41.1217
41.0447
40.9686
40.8934
40.8191
40.7457
40.6733
40.6018
40.5313
40.4618
40.3932
40.3257
40.2591
40.1936
40.1291
40.0656
40.0032
39.9418
39.8814
39.8221
39.7639
39.7067
39.6506
39.5956
39.5416
39.4887
39.4369
39.3862
39.3365
39.2879
39.2404
39.194
39.1486
39.1043
39.0611
39.0189
38.9778
38.9378
38.8988
38.8609
38.824
38.7881
38.7533
38.7196
38.6868
38.6551
38.6243
38.5946
38.5659
38.5381
38.5114
38.4856
38.4607
38.4368
38.4139
38.3919
38.3708
38.3507
38.3314
38.3131
38.2956
38.279
38.2633
38.2484
38.2344
38.2211
38.2087
38.1972
38.1864
38.1764
38.1671
38.1587
38.1509
38.1439
38.1377
38.1321
38.1272
38.1231
38.1195
38.1167
38.1145
38.1129
38.112
38.1116
38.1119
38.1127
38.1141
38.1161
38.1186
38.1216
38.1252
38.1293
38.1338
38.1388
38.1443
38.1503
38.1567
38.1635
38.1708
38.1784
38.1864
38.1949
38.2036
38.2128
38.2223
38.2321
38.2422
38.2526
38.2634
38.2744
38.2857
38.2972
38.309
38.321
38.3333
38.3458
38.3584
38.3713
38.3844
38.3976
38.411
38.4245
38.4382
38.452
38.466
38.48
38.4941
38.5084
38.5227
38.5371
38.5515
38.566
38.5806
38.5952
38.6098
38.6244
38.639
38.6537
38.6683
38.6829
38.6975
38.7121
38.7266
38.741
38.7554
38.7698
38.7841
38.7983
38.8124
38.8264
38.8403
38.8542
38.8679
38.8814
38.8949
38.9082
38.9214
38.9345
38.9474
38.9601
38.9727
38.9852
38.9974
39.0095
39.0214
39.0331
39.0446
39.0559
39.0671
39.078
39.0887
39.0992
39.1095
39.1195
39.1293
39.1389
39.1483
39.1574
39.1663
39.175
39.1834
39.1915
39.1994
39.2071
39.2144
39.2216
39.2284
39.235
39.2413
39.2474
39.2531
39.2586
39.2638
39.2688
39.2734
39.2778
39.2819
39.2857
39.2892
39.2924
39.2954
39.298
39.3004
39.3024
39.3042
39.3057
39.3069
39.3078
39.3084
39.3086
48.8459
48.8431
48.8373
48.829
48.818
48.8047
48.7891
48.7715
48.7518
48.7301
48.7066
48.6811
48.6538
48.6247
48.5938
48.5611
48.5265
48.4902
48.4521
48.4123
48.3707
48.3274
48.2824
48.2357
48.1873
48.1373
48.0856
48.0323
47.9775
47.921
47.863
47.8035
47.7426
47.6801
47.6162
47.5509
47.4842
47.4162
47.3468
47.2762
47.2043
47.1312
47.0569
46.9814
46.9048
46.827
46.7483
46.6685
46.5877
46.5059
46.4232
46.3396
46.2552
46.1699
46.0839
45.997
45.9095
45.8213
45.7325
45.643
45.553
45.4625
45.3714
45.2799
45.1879
45.0956
45.0029
44.9099
44.8165
44.723
44.6292
44.5352
44.4411
44.3469
44.2526
44.1582
44.0639
43.9695
43.8753
43.7811
43.687
43.5931
43.4993
43.4058
43.3125
43.2195
43.1268
43.0344
42.9423
42.8507
42.7595
42.6687
42.5784
42.4886
42.3993
42.3105
42.2224
42.1348
42.0478
41.9615
41.8759
41.7909
41.7067
41.6232
41.5404
41.4585
41.3773
41.2969
41.2173
41.1386
41.0607
40.9837
40.9076
40.8324
40.7581
40.6847
40.6123
40.5409
40.4704
40.4009
40.3323
40.2648
40.1983
40.1327
40.0683
40.0048
39.9424
39.881
39.8207
39.7614
39.7032
39.6461
39.59
39.535
39.4811
39.4282
39.3764
39.3257
39.2761
39.2276
39.1801
39.1337
39.0884
39.0442
39.001
38.9589
38.9178
38.8778
38.8389
38.801
38.7642
38.7284
38.6937
38.66
38.6273
38.5956
38.5649
38.5352
38.5066
38.4789
38.4522
38.4265
38.4017
38.3779
38.355
38.3331