/*--------------------------------*- C++ -*----------------------------------*\
| =========                 |                                                 |
| \\      /  F ield         | OpenFOAM: The Open Source CFD Toolbox           |
|  \\    /   O peration     | Version:  2212                                  |
|   \\  /    A nd           | Website:  www.openfoam.com                      |
|    \\/     M anipulation  |                                                 |
\*---------------------------------------------------------------------------*/
FoamFile
{
    version     2.0;
    format      ascii;
    arch        "LSB;label=32;scalar=64";
    class       volScalarField;
    location    "640";
    object      p_rgh_0;
}
// * * * * * * * * * * * * * * * * * * * * * * * * * * * * * * * * * * * * * //

dimensions      [1 -1 -2 0 0 0 0];

internalField   nonuniform List<scalar> 
204800
(
45.7119
45.7075
45.6983
45.6844
45.6654
45.6415
45.6124
45.5784
45.5394
45.4958
45.4478
45.3954
45.339
45.2785
45.2141
45.146
45.0741
44.9986
44.9196
44.837
44.7511
44.6618
44.5693
44.4736
44.3747
44.2729
44.1681
44.0604
43.95
43.8368
43.721
43.6027
43.4819
43.3588
43.2334
43.1057
42.976
42.8443
42.7106
42.5751
42.4378
42.2989
42.1583
42.0163
41.8729
41.7281
41.5821
41.435
41.2868
41.1377
40.9876
40.8368
40.6852
40.533
40.3803
40.2271
40.0735
39.9196
39.7655
39.6112
39.4569
39.3026
39.1484
38.9943
38.8404
38.6869
38.5337
38.381
38.2288
38.0772
37.9262
37.7759
37.6264
37.4777
37.33
37.1831
37.0373
36.8926
36.7489
36.6064
36.4652
36.3252
36.1865
36.0492
35.9133
35.7788
35.6458
35.5144
35.3845
35.2562
35.1296
35.0046
34.8813
34.7598
34.64
34.5219
34.4058
34.2914
34.1789
34.0682
33.9595
33.8527
33.7478
33.6449
33.5439
33.4449
33.3479
33.2528
33.1598
33.0688
32.9798
32.8928
32.8078
32.7249
32.6439
32.5651
32.4882
32.4134
32.3405
32.2697
32.2009
32.1341
32.0693
32.0065
31.9457
31.8869
31.83
31.775
31.722
31.6709
31.6217
31.5744
31.529
31.4855
31.4438
31.404
31.3659
31.3297
31.2952
31.2625
31.2315
31.2023
31.1747
31.1489
31.1247
31.1021
31.0811
31.0618
31.044
31.0277
31.013
30.9998
30.9881
30.9778
30.969
30.9615
30.9555
30.9508
30.9474
30.9454
30.9447
30.9452
30.9469
30.9499
30.9541
30.9594
30.9659
30.9735
30.9822
30.992
31.0028
31.0146
31.0275
31.0413
31.056
31.0717
31.0883
31.1058
31.1241
31.1433
31.1633
31.1841
31.2056
31.2279
31.2509
31.2746
31.2989
31.324
31.3496
31.3759
31.4028
31.4302
31.4582
31.4867
31.5157
31.5452
31.5752
31.6056
31.6365
31.6678
31.6994
31.7314
31.7638
31.7965
31.8296
31.8629
31.8965
31.9304
31.9645
31.9988
32.0334
32.0681
32.1031
32.1382
32.1734
32.2088
32.2443
32.2799
32.3156
32.3514
32.3872
32.4231
32.459
32.4949
32.5308
32.5667
32.6026
32.6384
32.6742
32.7099
32.7456
32.7812
32.8166
32.852
32.8872
32.9224
32.9573
32.9921
33.0268
33.0613
33.0956
33.1297
33.1636
33.1972
33.2307
33.2639
33.2969
33.3296
33.3621
33.3943
33.4262
33.4578
33.4892
33.5202
33.551
33.5814
33.6115
33.6412
33.6706
33.6997
33.7284
33.7568
33.7848
33.8124
33.8397
33.8665
33.893
33.9191
33.9448
33.9701
33.9949
34.0194
34.0434
34.067
34.0901
34.1129
34.1351
34.157
34.1784
34.1993
34.2198
34.2398
34.2594
34.2784
34.297
34.3152
34.3328
34.35
34.3666
34.3828
34.3985
34.4137
34.4284
34.4426
34.4563
34.4695
34.4822
34.4943
34.506
34.5171
34.5277
34.5378
34.5474
34.5565
34.565
34.573
34.5805
34.5874
34.5938
34.5997
34.6051
34.6099
34.6142
34.6179
34.6212
34.6238
34.626
34.6276
34.6287
34.6292
45.6489
45.6429
45.6308
45.6134
45.5907
45.5632
45.5312
45.4948
45.4541
45.4093
45.3604
45.3075
45.2507
45.1901
45.1257
45.0575
44.9856
44.9102
44.8312
44.7488
44.6629
44.5738
44.4814
44.3858
44.2871
44.1854
44.0808
43.9733
43.863
43.75
43.6344
43.5163
43.3957
43.2728
43.1476
43.0202
42.8907
42.7591
42.6257
42.4904
42.3533
42.2146
42.0743
41.9326
41.7894
41.6449
41.4991
41.3523
41.2043
41.0554
40.9057
40.7551
40.6038
40.4519
40.2994
40.1465
39.9932
39.8395
39.6857
39.5317
39.3777
39.2236
39.0697
38.9159
38.7623
38.609
38.4561
38.3037
38.1518
38.0004
37.8497
37.6997
37.5505
37.4021
37.2545
37.108
36.9624
36.8179
36.6746
36.5323
36.3913
36.2516
36.1132
35.9761
35.8405
35.7063
35.5735
35.4423
35.3127
35.1846
35.0582
34.9335
34.8104
34.6891
34.5695
34.4518
34.3358
34.2216
34.1093
33.9989
33.8904
33.7838
33.6791
33.5764
33.4756
33.3768
33.2799
33.1851
33.0922
33.0014
32.9126
32.8257
32.7409
32.6582
32.5774
32.4987
32.422
32.3473
32.2746
32.2039
32.1353
32.0686
32.004
31.9413
31.8806
31.8219
31.7651
31.7103
31.6574
31.6064
31.5573
31.5101
31.4648
31.4214
31.3798
31.34
31.3021
31.2659
31.2315
31.1989
31.168
31.1388
31.1113
31.0855
31.0614
31.0389
31.018
30.9987
30.9809
30.9647
30.95
30.9369
30.9252
30.9149
30.9061
30.8987
30.8927
30.888
30.8847
30.8827
30.882
30.8825
30.8843
30.8873
30.8914
30.8968
30.9033
30.9109
30.9196
30.9293
30.9401
30.952
30.9648
30.9786
30.9933
31.009
31.0256
31.043
31.0614
31.0805
31.1005
31.1212
31.1427
31.165
31.1879
31.2116
31.2359
31.2609
31.2866
31.3128
31.3396
31.367
31.395
31.4234
31.4524
31.4819
31.5118
31.5422
31.573
31.6042
31.6358
31.6678
31.7001
31.7328
31.7657
31.799
31.8326
31.8664
31.9005
31.9347
31.9693
32.004
32.0388
32.0739
32.1091
32.1444
32.1798
32.2154
32.251
32.2867
32.3225
32.3583
32.3941
32.43
32.4658
32.5017
32.5375
32.5733
32.609
32.6447
32.6803
32.7158
32.7512
32.7865
32.8217
32.8567
32.8916
32.9264
32.961
32.9954
33.0296
33.0637
33.0975
33.1311
33.1645
33.1977
33.2306
33.2633
33.2957
33.3278
33.3597
33.3913
33.4226
33.4536
33.4842
33.5146
33.5446
33.5743
33.6037
33.6327
33.6614
33.6897
33.7177
33.7452
33.7724
33.7993
33.8257
33.8517
33.8774
33.9026
33.9274
33.9518
33.9758
33.9993
34.0225
34.0451
34.0674
34.0892
34.1105
34.1314
34.1519
34.1719
34.1914
34.2104
34.229
34.2471
34.2647
34.2818
34.2985
34.3146
34.3303
34.3455
34.3601
34.3743
34.388
34.4011
34.4138
34.4259
34.4376
34.4487
34.4593
34.4693
34.4789
34.4879
34.4965
34.5045
34.5119
34.5189
34.5253
34.5311
34.5365
34.5413
34.5456
34.5493
34.5525
34.5552
34.5574
34.559
34.56
34.5606
45.6333
45.6273
45.6153
45.598
45.5754
45.548
45.516
45.4796
45.4389
45.394
45.3451
45.2921
45.2352
45.1745
45.1099
45.0417
44.9698
44.8943
44.8152
44.7327
44.6468
44.5576
44.4651
44.3695
44.2707
44.169
44.0643
43.9568
43.8464
43.7334
43.6178
43.4996
43.379
43.256
43.1308
43.0033
42.8738
42.7423
42.6088
42.4735
42.3364
42.1976
42.0573
41.9155
41.7723
41.6278
41.482
41.3351
41.1872
41.0383
40.8885
40.7379
40.5866
40.4347
40.2822
40.1292
39.9759
39.8223
39.6684
39.5144
39.3604
39.2063
39.0524
38.8986
38.745
38.5917
38.4388
38.2864
38.1345
37.9831
37.8324
37.6824
37.5332
37.3848
37.2373
37.0907
36.9452
36.8007
36.6573
36.5151
36.3742
36.2344
36.096
35.959
35.8234
35.6892
35.5564
35.4253
35.2956
35.1676
35.0412
34.9165
34.7935
34.6722
34.5526
34.4349
34.3189
34.2048
34.0925
33.9821
33.8736
33.7671
33.6624
33.5597
33.4589
33.3601
33.2633
33.1685
33.0757
32.9849
32.8961
32.8093
32.7246
32.6418
32.5611
32.4824
32.4057
32.3311
32.2584
32.1878
32.1192
32.0526
31.9879
31.9253
31.8646
31.8059
31.7492
31.6944
31.6415
31.5906
31.5415
31.4944
31.4491
31.4057
31.3642
31.3244
31.2865
31.2504
31.216
31.1834
31.1526
31.1234
31.096
31.0702
31.0461
31.0236
31.0028
30.9835
30.9658
30.9496
30.935
30.9218
30.9102
30.8999
30.8912
30.8838
30.8778
30.8732
30.8699
30.8679
30.8672
30.8677
30.8695
30.8726
30.8768
30.8821
30.8886
30.8963
30.905
30.9148
30.9256
30.9375
30.9503
30.9641
30.9789
30.9946
31.0112
31.0287
31.047
31.0662
31.0862
31.1069
31.1285
31.1507
31.1737
31.1974
31.2218
31.2468
31.2724
31.2987
31.3255
31.3529
31.3809
31.4094
31.4384
31.4679
31.4978
31.5282
31.559
31.5902
31.6219
31.6538
31.6862
31.7189
31.7519
31.7851
31.8187
31.8525
31.8866
31.9209
31.9554
31.9901
32.025
32.0601
32.0953
32.1306
32.1661
32.2016
32.2373
32.273
32.3087
32.3445
32.3804
32.4162
32.4521
32.488
32.5238
32.5596
32.5953
32.631
32.6666
32.7021
32.7375
32.7728
32.808
32.8431
32.878
32.9127
32.9473
32.9818
33.016
33.05
33.0839
33.1175
33.1509
33.1841
33.217
33.2497
33.2821
33.3142
33.3461
33.3777
33.4089
33.4399
33.4706
33.501
33.531
33.5607
33.5901
33.6191
33.6478
33.6761
33.704
33.7316
33.7588
33.7856
33.8121
33.8381
33.8637
33.889
33.9138
33.9382
33.9622
33.9857
34.0088
34.0315
34.0538
34.0756
34.0969
34.1178
34.1383
34.1582
34.1777
34.1968
34.2154
34.2335
34.2511
34.2682
34.2848
34.301
34.3167
34.3318
34.3465
34.3607
34.3743
34.3875
34.4002
34.4123
34.4239
34.435
34.4456
34.4557
34.4653
34.4743
34.4828
34.4908
34.4983
34.5052
34.5116
34.5175
34.5228
34.5277
34.5319
34.5357
34.5389
34.5416
34.5437
34.5453
34.5464
34.5469
45.5725
45.566
45.5529
45.5342
45.51
45.481
45.4475
45.4098
45.368
45.3222
45.2725
45.219
45.1617
45.1006
45.0358
44.9674
44.8953
44.8197
44.7406
44.658
44.5721
44.4829
44.3904
44.2948
44.1961
44.0944
43.9897
43.8822
43.772
43.659
43.5434
43.4254
43.3048
43.182
43.0568
42.9295
42.8
42.6686
42.5352
42.4
42.2631
42.1244
41.9843
41.8426
41.6995
41.5551
41.4095
41.2628
41.115
40.9662
40.8166
40.6661
40.515
40.3632
40.2109
40.0581
39.9049
39.7515
39.5978
39.4439
39.2901
39.1362
38.9824
38.8288
38.6754
38.5223
38.3696
38.2173
38.0655
37.9144
37.7638
37.614
37.465
37.3168
37.1695
37.0231
36.8777
36.7334
36.5903
36.4482
36.3074
36.1679
36.0297
35.8928
35.7574
35.6233
35.4908
35.3598
35.2304
35.1025
34.9763
34.8518
34.7289
34.6078
34.4884
34.3708
34.2551
34.1411
34.029
33.9188
33.8105
33.704
33.5995
33.497
33.3964
33.2978
33.2011
33.1065
33.0138
32.9232
32.8345
32.7479
32.6633
32.5807
32.5001
32.4215
32.345
32.2705
32.198
32.1275
32.059
31.9925
31.928
31.8655
31.8049
31.7464
31.6897
31.6351
31.5823
31.5315
31.4826
31.4355
31.3904
31.3471
31.3056
31.266
31.2282
31.1921
31.1579
31.1254
31.0946
31.0655
31.0382
31.0125
30.9884
30.966
30.9452
30.926
30.9084
30.8923
30.8777
30.8647
30.853
30.8429
30.8342
30.8269
30.8209
30.8163
30.8131
30.8112
30.8105
30.8111
30.813
30.816
30.8203
30.8257
30.8322
30.8399
30.8486
30.8584
30.8693
30.8812
30.8941
30.9079
30.9227
30.9384
30.955
30.9725
30.9909
31.0101
31.03
31.0508
31.0723
31.0946
31.1176
31.1413
31.1657
31.1907
31.2163
31.2426
31.2694
31.2968
31.3248
31.3533
31.3823
31.4117
31.4417
31.472
31.5029
31.5341
31.5657
31.5976
31.63
31.6626
31.6956
31.7289
31.7624
31.7962
31.8303
31.8646
31.8991
31.9337
31.9686
32.0036
32.0388
32.0741
32.1096
32.1451
32.1807
32.2164
32.2521
32.2879
32.3237
32.3595
32.3954
32.4312
32.467
32.5027
32.5384
32.5741
32.6097
32.6451
32.6805
32.7158
32.751
32.786
32.8209
32.8556
32.8902
32.9246
32.9588
32.9928
33.0266
33.0602
33.0935
33.1267
33.1595
33.1922
33.2246
33.2567
33.2885
33.3201
33.3513
33.3823
33.4129
33.4432
33.4733
33.5029
33.5323
33.5613
33.5899
33.6182
33.6461
33.6737
33.7008
33.7276
33.754
33.78
33.8056
33.8308
33.8556
33.88
33.9039
33.9275
33.9506
33.9732
33.9954
34.0172
34.0385
34.0594
34.0798
34.0998
34.1193
34.1383
34.1569
34.1749
34.1925
34.2096
34.2263
34.2424
34.258
34.2732
34.2878
34.302
34.3156
34.3288
34.3414
34.3536
34.3652
34.3763
34.3869
34.3969
34.4065
34.4155
34.424
34.432
34.4394
34.4464
34.4528
34.4586
34.464
34.4688
34.4731
34.4768
34.48
34.4827
34.4848
34.4864
34.4875
34.488
45.5465
45.5402
45.5273
45.5089
45.4849
45.4562
45.4228
45.3852
45.3433
45.2975
45.2477
45.1941
45.1366
45.0754
45.0105
44.9419
44.8696
44.7939
44.7146
44.6319
44.5459
44.4565
44.3639
44.2682
44.1694
44.0676
43.9628
43.8552
43.7448
43.6318
43.5161
43.398
43.2774
43.1544
43.0292
42.9017
42.7722
42.6407
42.5073
42.372
42.235
42.0963
41.956
41.8143
41.6711
41.5267
41.381
41.2342
41.0864
40.9376
40.7879
40.6374
40.4862
40.3344
40.182
40.0292
39.876
39.7225
39.5687
39.4149
39.261
39.1071
38.9532
38.7996
38.6462
38.4931
38.3403
38.188
38.0363
37.8851
37.7346
37.5847
37.4357
37.2875
37.1402
36.9938
36.8484
36.7041
36.561
36.4189
36.2781
36.1386
36.0004
35.8636
35.7281
35.5941
35.4616
35.3306
35.2012
35.0734
34.9472
34.8227
34.6999
34.5788
34.4594
34.3419
34.2262
34.1122
34.0002
33.89
33.7817
33.6753
33.5709
33.4684
33.3678
33.2693
33.1727
33.0781
32.9854
32.8948
32.8062
32.7197
32.6351
32.5526
32.472
32.3935
32.3171
32.2426
32.1702
32.0997
32.0313
31.9649
31.9004
31.838
31.7775
31.719
31.6624
31.6078
31.5551
31.5044
31.4555
31.4085
31.3634
31.3202
31.2788
31.2392
31.2015
31.1655
31.1313
31.0989
31.0682
31.0392
31.0119
30.9863
30.9623
30.94
30.9192
30.9001
30.8825
30.8665
30.852
30.8389
30.8274
30.8173
30.8087
30.8014
30.7955
30.791
30.7878
30.7859
30.7853
30.786
30.7879
30.791
30.7953
30.8008
30.8074
30.8151
30.8239
30.8338
30.8447
30.8566
30.8695
30.8834
30.8983
30.914
30.9307
30.9483
30.9667
30.9859
31.0059
31.0267
31.0483
31.0706
31.0937
31.1174
31.1418
31.1669
31.1925
31.2188
31.2457
31.2732
31.3011
31.3297
31.3587
31.3882
31.4182
31.4486
31.4794
31.5107
31.5423
31.5743
31.6067
31.6394
31.6724
31.7057
31.7392
31.7731
31.8071
31.8415
31.876
31.9107
31.9456
31.9806
32.0158
32.0512
32.0866
32.1222
32.1578
32.1935
32.2293
32.2651
32.3009
32.3367
32.3726
32.4084
32.4442
32.48
32.5157
32.5514
32.587
32.6225
32.6579
32.6932
32.7283
32.7634
32.7983
32.833
32.8676
32.902
32.9362
32.9702
33.004
33.0376
33.071
33.1041
33.137
33.1697
33.2021
33.2342
33.266
33.2976
33.3288
33.3598
33.3905
33.4208
33.4508
33.4805
33.5098
33.5388
33.5675
33.5958
33.6237
33.6512
33.6784
33.7052
33.7316
33.7576
33.7832
33.8084
33.8332
33.8576
33.8816
33.9051
33.9282
33.9509
33.9731
33.9949
34.0162
34.0371
34.0575
34.0774
34.0969
34.116
34.1345
34.1526
34.1702
34.1873
34.2039
34.2201
34.2357
34.2508
34.2655
34.2797
34.2933
34.3065
34.3191
34.3312
34.3428
34.3539
34.3645
34.3746
34.3841
34.3932
34.4017
34.4097
34.4171
34.424
34.4304
34.4363
34.4416
34.4464
34.4507
34.4545
34.4577
34.4604
34.4625
34.4641
34.4652
34.4657
45.489
45.4825
45.4694
45.4505
45.4259
45.3965
45.3625
45.3241
45.2817
45.2352
45.1849
45.1308
45.0729
45.0113
44.9461
44.8772
44.8047
44.7288
44.6493
44.5665
44.4803
44.3908
44.2982
44.2023
44.1034
44.0016
43.8968
43.7891
43.6787
43.5656
43.4499
43.3317
43.2111
43.0881
42.9629
42.8355
42.706
42.5745
42.441
42.3058
42.1688
42.0301
41.8899
41.7482
41.6051
41.4606
41.315
41.1682
41.0204
40.8717
40.722
40.5716
40.4205
40.2687
40.1164
39.9636
39.8105
39.6571
39.5034
39.3496
39.1958
39.042
38.8882
38.7347
38.5814
38.4283
38.2757
38.1235
37.9718
37.8208
37.6703
37.5206
37.3717
37.2236
37.0763
36.9301
36.7848
36.6407
36.4976
36.3557
36.215
36.0756
35.9375
35.8008
35.6655
35.5316
35.3992
35.2684
35.1391
35.0114
34.8854
34.761
34.6383
34.5173
34.3981
34.2807
34.1651
34.0513
33.9394
33.8294
33.7212
33.615
33.5106
33.4083
33.3079
33.2094
33.113
33.0185
32.926
32.8355
32.7471
32.6606
32.5762
32.4938
32.4134
32.3351
32.2587
32.1844
32.1121
32.0418
31.9735
31.9072
31.8429
31.7805
31.7202
31.6618
31.6054
31.5509
31.4983
31.4477
31.3989
31.3521
31.3071
31.264
31.2227
31.1832
31.1456
31.1097
31.0756
31.0433
31.0127
30.9838
30.9566
30.9311
30.9072
30.885
30.8644
30.8453
30.8278
30.8119
30.7975
30.7845
30.7731
30.7631
30.7545
30.7473
30.7415
30.7371
30.734
30.7322
30.7317
30.7324
30.7344
30.7376
30.7419
30.7475
30.7541
30.7619
30.7708
30.7807
30.7917
30.8037
30.8167
30.8306
30.8455
30.8613
30.878
30.8956
30.9141
30.9333
30.9534
30.9743
30.9959
31.0183
31.0413
31.0651
31.0896
31.1146
31.1404
31.1667
31.1936
31.2211
31.2491
31.2776
31.3067
31.3362
31.3662
31.3966
31.4275
31.4588
31.4904
31.5225
31.5548
31.5875
31.6206
31.6539
31.6875
31.7213
31.7554
31.7897
31.8242
31.859
31.8939
31.9289
31.9641
31.9995
32.0349
32.0705
32.1061
32.1418
32.1776
32.2134
32.2492
32.285
32.3209
32.3567
32.3925
32.4283
32.464
32.4997
32.5352
32.5707
32.6061
32.6414
32.6766
32.7116
32.7465
32.7812
32.8158
32.8502
32.8844
32.9184
32.9522
32.9858
33.0192
33.0523
33.0852
33.1178
33.1502
33.1823
33.2141
33.2457
33.2769
33.3079
33.3385
33.3688
33.3988
33.4285
33.4578
33.4868
33.5154
33.5437
33.5716
33.5992
33.6263
33.6531
33.6795
33.7055
33.7311
33.7563
33.7811
33.8054
33.8294
33.8529
33.876
33.8986
33.9208
33.9426
33.9639
33.9848
34.0052
34.0251
34.0446
34.0636
34.0822
34.1002
34.1178
34.1349
34.1515
34.1677
34.1833
34.1984
34.2131
34.2272
34.2409
34.254
34.2666
34.2788
34.2904
34.3015
34.312
34.3221
34.3316
34.3407
34.3492
34.3571
34.3646
34.3715
34.3779
34.3838
34.3891
34.3939
34.3982
34.4019
34.4051
34.4078
34.41
34.4116
34.4126
34.4132
45.4565
45.4502
45.4373
45.4187
45.3944
45.3653
45.3314
45.2932
45.2508
45.2043
45.1539
45.0996
45.0415
44.9798
44.9143
44.8452
44.7726
44.6964
44.6168
44.5337
44.4473
44.3577
44.2648
44.1688
44.0698
43.9677
43.8627
43.7549
43.6444
43.5311
43.4153
43.2969
43.1762
43.0531
42.9277
42.8001
42.6705
42.5388
42.4053
42.2699
42.1328
41.994
41.8536
41.7118
41.5686
41.4241
41.2783
41.1315
40.9836
40.8347
40.685
40.5344
40.3832
40.2313
40.079
39.9261
39.7729
39.6194
39.4657
39.3118
39.1579
39.004
38.8502
38.6966
38.5432
38.3902
38.2375
38.0853
37.9335
37.7824
37.632
37.4822
37.3332
37.1851
37.0379
36.8916
36.7463
36.6021
36.4591
36.3172
36.1765
36.0371
35.899
35.7623
35.627
35.4931
35.3607
35.2299
35.1006
34.9729
34.8469
34.7225
34.5999
34.479
34.3598
34.2424
34.1268
34.0131
33.9012
33.7912
33.6831
33.5769
33.4727
33.3704
33.27
33.1716
33.0752
32.9808
32.8884
32.798
32.7096
32.6232
32.5389
32.4565
32.3762
32.2979
32.2217
32.1474
32.0752
32.005
31.9367
31.8705
31.8063
31.7441
31.6838
31.6255
31.5691
31.5147
31.4623
31.4117
31.3631
31.3163
31.2714
31.2284
31.1872
31.1478
31.1103
31.0745
31.0405
31.0083
30.9778
30.949
30.9219
30.8964
30.8727
30.8505
30.83
30.811
30.7936
30.7778
30.7635
30.7506
30.7393
30.7294
30.7209
30.7138
30.7081
30.7037
30.7007
30.699
30.6986
30.6994
30.7015
30.7047
30.7092
30.7148
30.7215
30.7294
30.7384
30.7484
30.7594
30.7715
30.7846
30.7986
30.8136
30.8295
30.8462
30.8639
30.8824
30.9018
30.9219
30.9429
30.9645
30.987
31.0101
31.0339
31.0585
31.0836
31.1094
31.1358
31.1628
31.1903
31.2184
31.247
31.2761
31.3057
31.3357
31.3662
31.3971
31.4285
31.4602
31.4922
31.5247
31.5574
31.5905
31.6238
31.6575
31.6914
31.7255
31.7599
31.7944
31.8292
31.8641
31.8992
31.9345
31.9699
32.0054
32.0409
32.0766
32.1124
32.1481
32.184
32.2199
32.2557
32.2916
32.3275
32.3633
32.3991
32.4349
32.4705
32.5062
32.5417
32.5771
32.6124
32.6476
32.6826
32.7176
32.7523
32.7869
32.8213
32.8555
32.8896
32.9234
32.957
32.9904
33.0235
33.0564
33.0891
33.1215
33.1536
33.1854
33.217
33.2483
33.2792
33.3099
33.3402
33.3702
33.3999
33.4293
33.4583
33.4869
33.5152
33.5431
33.5707
33.5978
33.6246
33.651
33.677
33.7026
33.7278
33.7526
33.777
33.801
33.8245
33.8476
33.8702
33.8924
33.9142
33.9355
33.9564
33.9768
33.9968
34.0163
34.0353
34.0538
34.0719
34.0895
34.1066
34.1232
34.1393
34.155
34.1701
34.1848
34.1989
34.2126
34.2257
34.2383
34.2505
34.2621
34.2732
34.2838
34.2938
34.3034
34.3124
34.3209
34.3289
34.3363
34.3432
34.3496
34.3555
34.3608
34.3656
34.3699
34.3737
34.3769
34.3795
34.3817
34.3833
34.3844
34.3849
45.4024
45.396
45.3831
45.3644
45.34
45.3107
45.2765
45.2379
45.1951
45.1483
45.0974
45.0428
44.9844
44.9223
44.8565
44.7871
44.7141
44.6377
44.5578
44.4746
44.388
44.2981
44.2051
44.1089
44.0097
43.9075
43.8024
43.6944
43.5837
43.4704
43.3544
43.236
43.1151
42.9919
42.8664
42.7387
42.609
42.4773
42.3436
42.2082
42.071
41.9321
41.7917
41.6498
41.5065
41.3619
41.2162
41.0692
40.9213
40.7724
40.6226
40.4721
40.3208
40.1689
40.0165
39.8637
39.7104
39.5569
39.4032
39.2493
39.0954
38.9415
38.7877
38.6341
38.4808
38.3277
38.175
38.0228
37.8712
37.7201
37.5696
37.4199
37.271
37.1229
36.9757
36.8295
36.6843
36.5401
36.3971
36.2553
36.1146
35.9753
35.8373
35.7006
35.5654
35.4316
35.2993
35.1686
35.0394
34.9118
34.7859
34.6616
34.539
34.4182
34.2991
34.1818
34.0664
33.9528
33.841
33.7311
33.6231
33.517
33.4129
33.3107
33.2104
33.1122
33.0159
32.9216
32.8293
32.739
32.6508
32.5645
32.4803
32.3981
32.3179
32.2397
32.1636
32.0895
32.0174
31.9473
31.8792
31.8131
31.749
31.6869
31.6268
31.5686
31.5124
31.4581
31.4058
31.3553
31.3068
31.2602
31.2154
31.1725
31.1315
31.0922
31.0548
31.0192
30.9853
30.9532
30.9228
30.8941
30.8672
30.8419
30.8182
30.7962
30.7758
30.7569
30.7397
30.7239
30.7097
30.697
30.6858
30.676
30.6676
30.6606
30.655
30.6508
30.6479
30.6463
30.6459
30.6469
30.649
30.6524
30.6569
30.6627
30.6695
30.6775
30.6865
30.6966
30.7078
30.7199
30.7331
30.7472
30.7622
30.7782
30.7951
30.8128
30.8314
30.8509
30.8711
30.8921
30.9139
30.9364
30.9596
30.9835
31.008
31.0333
31.0591
31.0856
31.1126
31.1402
31.1683
31.197
31.2262
31.2558
31.2859
31.3165
31.3474
31.3788
31.4106
31.4427
31.4752
31.508
31.5411
31.5745
31.6081
31.6421
31.6763
31.7107
31.7453
31.7801
31.815
31.8502
31.8855
31.9209
31.9564
31.992
32.0277
32.0635
32.0993
32.1351
32.171
32.2069
32.2428
32.2787
32.3146
32.3504
32.3862
32.4219
32.4575
32.493
32.5285
32.5638
32.599
32.6341
32.669
32.7038
32.7384
32.7728
32.807
32.8411
32.8749
32.9085
32.9419
32.9751
33.008
33.0406
33.073
33.1052
33.137
33.1686
33.1999
33.2308
33.2615
33.2918
33.3218
33.3515
33.3809
33.4099
33.4385
33.4668
33.4947
33.5223
33.5495
33.5762
33.6026
33.6287
33.6543
33.6795
33.7042
33.7286
33.7526
33.7761
33.7992
33.8218
33.844
33.8658
33.8871
33.908
33.9284
33.9484
33.9679
33.9869
34.0054
34.0235
34.0411
34.0582
34.0748
34.0909
34.1066
34.1217
34.1363
34.1505
34.1641
34.1773
34.1899
34.202
34.2136
34.2247
34.2353
34.2454
34.2549
34.2639
34.2724
34.2804
34.2879
34.2948
34.3012
34.307
34.3124
34.3172
34.3215
34.3252
34.3284
34.3311
34.3332
34.3348
34.3359
34.3364
45.3659
45.3596
45.3469
45.3285
45.3044
45.2753
45.2413
45.2028
45.16
45.1131
45.0622
45.0074
44.9488
44.8865
44.8205
44.7508
44.6777
44.601
44.5208
44.4373
44.3505
44.2604
44.1671
44.0707
43.9712
43.8688
43.7634
43.6553
43.5444
43.4308
43.3146
43.196
43.0749
42.9514
42.8258
42.6979
42.568
42.4361
42.3023
42.1666
42.0292
41.8902
41.7496
41.6075
41.4641
41.3194
41.1734
41.0263
40.8782
40.7292
40.5792
40.4285
40.2771
40.1251
39.9726
39.8196
39.6663
39.5126
39.3588
39.2048
39.0508
38.8968
38.7429
38.5892
38.4357
38.2826
38.1298
37.9775
37.8258
37.6746
37.5241
37.3743
37.2253
37.0772
36.93
36.7837
36.6384
36.4942
36.3512
36.2093
36.0687
35.9293
35.7913
35.6546
35.5194
35.3856
35.2533
35.1225
34.9934
34.8658
34.7399
34.6156
34.4931
34.3723
34.2532
34.136
34.0205
33.907
33.7952
33.6854
33.5774
33.4714
33.3673
33.2652
33.165
33.0668
32.9706
32.8764
32.7842
32.694
32.6058
32.5196
32.4354
32.3533
32.2732
32.1952
32.1191
32.0451
31.9731
31.9031
31.8351
31.7691
31.7051
31.6431
31.5831
31.525
31.4689
31.4148
31.3625
31.3122
31.2638
31.2173
31.1727
31.1299
31.0889
31.0498
31.0125
30.977
30.9432
30.9113
30.881
30.8524
30.8256
30.8004
30.7769
30.755
30.7347
30.716
30.6988
30.6832
30.6691
30.6565
30.6454
30.6357
30.6275
30.6206
30.6151
30.611
30.6082
30.6067
30.6065
30.6076
30.6099
30.6133
30.618
30.6238
30.6308
30.6389
30.648
30.6582
30.6695
30.6818
30.695
30.7092
30.7244
30.7405
30.7575
30.7753
30.794
30.8135
30.8339
30.855
30.8768
30.8994
30.9227
30.9467
30.9714
30.9967
31.0226
31.0492
31.0763
31.104
31.1322
31.161
31.1902
31.2199
31.2501
31.2807
31.3118
31.3432
31.3751
31.4073
31.4398
31.4727
31.5059
31.5393
31.5731
31.6071
31.6413
31.6758
31.7105
31.7453
31.7804
31.8155
31.8509
31.8864
31.9219
31.9576
31.9934
32.0292
32.0651
32.101
32.1369
32.1729
32.2088
32.2447
32.2806
32.3165
32.3523
32.3881
32.4237
32.4593
32.4948
32.5302
32.5654
32.6005
32.6355
32.6703
32.7049
32.7394
32.7736
32.8077
32.8416
32.8752
32.9087
32.9418
32.9748
33.0075
33.0399
33.0721
33.1039
33.1355
33.1668
33.1978
33.2285
33.2589
33.2889
33.3186
33.348
33.377
33.4057
33.434
33.4619
33.4895
33.5167
33.5435
33.5699
33.5959
33.6215
33.6468
33.6716
33.6959
33.7199
33.7434
33.7666
33.7892
33.8115
33.8332
33.8546
33.8754
33.8959
33.9158
33.9353
33.9543
33.9729
33.991
34.0086
34.0257
34.0423
34.0585
34.0741
34.0892
34.1039
34.1181
34.1317
34.1448
34.1575
34.1696
34.1812
34.1923
34.2029
34.213
34.2225
34.2316
34.2401
34.248
34.2555
34.2624
34.2688
34.2747
34.28
34.2848
34.2891
34.2928
34.296
34.2987
34.3009
34.3025
34.3035
34.3041
45.3147
45.3085
45.2958
45.2774
45.2533
45.2242
45.1901
45.1514
45.1084
45.0613
45.0101
44.955
44.896
44.8334
44.767
44.6971
44.6236
44.5466
44.4662
44.3824
44.2953
44.2049
44.1114
44.0147
43.915
43.8124
43.7068
43.5984
43.4873
43.3735
43.2571
43.1383
43.017
42.8934
42.7675
42.6395
42.5094
42.3773
42.2433
42.1075
41.9699
41.8308
41.69
41.5478
41.4042
41.2594
41.1133
40.9661
40.8178
40.6686
40.5186
40.3678
40.2163
40.0642
39.9115
39.7584
39.605
39.4513
39.2973
39.1433
38.9892
38.8351
38.6812
38.5274
38.3739
38.2207
38.0679
37.9156
37.7638
37.6126
37.462
37.3122
37.1632
37.015
36.8678
36.7215
36.5763
36.4321
36.289
36.1472
36.0066
35.8672
35.7292
35.5926
35.4573
35.3236
35.1913
35.0606
34.9315
34.804
34.6781
34.5539
34.4314
34.3107
34.1917
34.0745
33.9592
33.8457
33.734
33.6243
33.5164
33.4105
33.3065
33.2045
33.1044
33.0063
32.9102
32.8161
32.724
32.6339
32.5458
32.4598
32.3757
32.2937
32.2138
32.1358
32.0599
31.986
31.9141
31.8443
31.7764
31.7106
31.6467
31.5848
31.525
31.467
31.4111
31.3571
31.305
31.2548
31.2065
31.1602
31.1157
31.073
31.0322
30.9933
30.9561
30.9207
30.8871
30.8553
30.8252
30.7968
30.7701
30.745
30.7217
30.6999
30.6798
30.6612
30.6442
30.6287
30.6148
30.6023
30.5913
30.5818
30.5737
30.567
30.5616
30.5577
30.555
30.5536
30.5536
30.5547
30.5572
30.5608
30.5656
30.5715
30.5786
30.5868
30.5961
30.6064
30.6178
30.6302
30.6436
30.6579
30.6732
30.6894
30.7065
30.7244
30.7432
30.7629
30.7833
30.8045
30.8265
30.8492
30.8726
30.8967
30.9215
30.9469
30.9729
30.9995
31.0268
31.0545
31.0828
31.1117
31.141
31.1708
31.2011
31.2318
31.2629
31.2945
31.3264
31.3586
31.3913
31.4242
31.4574
31.491
31.5248
31.5589
31.5932
31.6277
31.6625
31.6974
31.7325
31.7677
31.8031
31.8386
31.8743
31.91
31.9458
31.9817
32.0176
32.0536
32.0896
32.1256
32.1616
32.1975
32.2335
32.2694
32.3053
32.341
32.3767
32.4124
32.4479
32.4833
32.5186
32.5537
32.5887
32.6235
32.6582
32.6927
32.727
32.7611
32.795
32.8287
32.8621
32.8953
32.9283
32.961
32.9935
33.0256
33.0575
33.0892
33.1205
33.1515
33.1822
33.2126
33.2426
33.2724
33.3017
33.3308
33.3595
33.3878
33.4157
33.4433
33.4705
33.4973
33.5238
33.5498
33.5754
33.6007
33.6255
33.6499
33.6739
33.6974
33.7205
33.7432
33.7654
33.7872
33.8086
33.8295
33.8499
33.8698
33.8893
33.9084
33.9269
33.945
33.9626
33.9797
33.9964
34.0125
34.0282
34.0433
34.058
34.0721
34.0858
34.0989
34.1116
34.1237
34.1353
34.1464
34.157
34.1671
34.1766
34.1857
34.1942
34.2021
34.2096
34.2165
34.2229
34.2288
34.2341
34.2389
34.2432
34.247
34.2502
34.2529
34.255
34.2566
34.2577
34.2582
45.2758
45.2696
45.2572
45.239
45.2151
45.1861
45.1521
45.1136
45.0706
45.0234
44.972
44.9168
44.8576
44.7948
44.7282
44.658
44.5842
44.5069
44.4262
44.3421
44.2547
44.164
44.0702
43.9733
43.8733
43.7703
43.6645
43.5558
43.4444
43.3303
43.2137
43.0945
42.973
42.8491
42.723
42.5947
42.4643
42.332
42.1978
42.0617
41.9239
41.7845
41.6435
41.5011
41.3573
41.2122
41.0658
40.9184
40.77
40.6206
40.4703
40.3193
40.1676
40.0153
39.8625
39.7092
39.5556
39.4017
39.2476
39.0934
38.9391
38.7849
38.6308
38.4769
38.3232
38.1699
38.017
37.8645
37.7126
37.5613
37.4107
37.2608
37.1117
36.9634
36.8161
36.6697
36.5244
36.3801
36.237
36.0951
35.9544
35.8151
35.677
35.5403
35.4051
35.2713
35.139
35.0083
34.8792
34.7516
34.6258
34.5016
34.3791
34.2584
34.1394
34.0223
33.907
33.7935
33.6819
33.5722
33.4644
33.3585
33.2546
33.1526
33.0526
32.9545
32.8585
32.7645
32.6724
32.5824
32.4944
32.4085
32.3246
32.2427
32.1628
32.0849
32.0091
31.9353
31.8636
31.7938
31.7261
31.6604
31.5966
31.5349
31.4751
31.4173
31.3615
31.3076
31.2557
31.2056
31.1575
31.1113
31.0669
31.0244
30.9838
30.9449
30.9079
30.8727
30.8393
30.8076
30.7776
30.7493
30.7228
30.6979
30.6747
30.6531
30.6331
30.6146
30.5978
30.5825
30.5687
30.5564
30.5455
30.5362
30.5282
30.5216
30.5164
30.5126
30.5101
30.5089
30.509
30.5103
30.5128
30.5166
30.5215
30.5276
30.5349
30.5432
30.5526
30.5631
30.5746
30.5872
30.6007
30.6151
30.6306
30.6469
30.6641
30.6822
30.7011
30.7209
30.7415
30.7628
30.7849
30.8077
30.8312
30.8555
30.8803
30.9059
30.932
30.9588
30.9861
31.014
31.0424
31.0714
31.1008
31.1307
31.1611
31.1919
31.2231
31.2548
31.2868
31.3191
31.3519
31.3849
31.4182
31.4519
31.4858
31.5199
31.5543
31.589
31.6238
31.6588
31.694
31.7293
31.7648
31.8004
31.8361
31.8719
31.9078
31.9437
31.9797
32.0157
32.0518
32.0879
32.1239
32.16
32.196
32.232
32.2679
32.3037
32.3395
32.3752
32.4107
32.4462
32.4815
32.5167
32.5518
32.5867
32.6214
32.6559
32.6903
32.7244
32.7583
32.7921
32.8256
32.8588
32.8918
32.9246
32.9571
32.9893
33.0212
33.0529
33.0842
33.1153
33.146
33.1764
33.2065
33.2363
33.2657
33.2948
33.3235
33.3518
33.3798
33.4074
33.4347
33.4615
33.488
33.514
33.5397
33.5649
33.5898
33.6142
33.6382
33.6618
33.6849
33.7076
33.7298
33.7517
33.773
33.7939
33.8144
33.8343
33.8539
33.8729
33.8915
33.9096
33.9272
33.9443
33.961
33.9771
33.9928
34.008
34.0226
34.0368
34.0505
34.0636
34.0763
34.0884
34.1
34.1111
34.1217
34.1318
34.1414
34.1504
34.1589
34.1669
34.1744
34.1813
34.1877
34.1936
34.1989
34.2037
34.208
34.2117
34.215
34.2176
34.2198
34.2214
34.2225
34.223
45.227
45.2209
45.2085
45.1904
45.1666
45.1376
45.1036
45.0649
45.0218
44.9743
44.9228
44.8672
44.8078
44.7446
44.6777
44.6072
44.5331
44.4555
44.3744
44.29
44.2023
44.1113
44.0171
43.9199
43.8196
43.7163
43.6102
43.5012
43.3895
43.2752
43.1582
43.0388
42.917
42.7929
42.6665
42.5379
42.4073
42.2747
42.1402
42.0039
41.8659
41.7262
41.585
41.4424
41.2983
41.153
41.0065
40.8589
40.7102
40.5606
40.4102
40.259
40.1071
39.9546
39.8016
39.6481
39.4944
39.3403
39.186
39.0317
38.8773
38.7229
38.5687
38.4147
38.2609
38.1074
37.9544
37.8018
37.6498
37.4984
37.3477
37.1977
37.0485
36.9002
36.7528
36.6064
36.461
36.3167
36.1736
36.0316
35.8909
35.7515
35.6134
35.4767
35.3415
35.2077
35.0754
34.9447
34.8156
34.6881
34.5622
34.4381
34.3157
34.195
34.0761
33.959
33.8437
33.7303
33.6187
33.5091
33.4014
33.2956
33.1917
33.0898
32.9899
32.892
32.796
32.7021
32.6102
32.5203
32.4324
32.3466
32.2627
32.181
32.1012
32.0235
31.9478
31.8742
31.8026
31.7329
31.6654
31.5998
31.5362
31.4746
31.415
31.3573
31.3017
31.2479
31.1961
31.1463
31.0983
31.0522
31.008
30.9657
30.9252
30.8866
30.8497
30.8147
30.7814
30.7498
30.72
30.692
30.6656
30.6409
30.6178
30.5964
30.5765
30.5583
30.5416
30.5265
30.5128
30.5007
30.49
30.4808
30.473
30.4666
30.4616
30.4579
30.4556
30.4546
30.4548
30.4563
30.459
30.4629
30.468
30.4743
30.4817