/*--------------------------------*- C++ -*----------------------------------*\
| =========                 |                                                 |
| \\      /  F ield         | OpenFOAM: The Open Source CFD Toolbox           |
|  \\    /   O peration     | Version:  2212                                  |
|   \\  /    A nd           | Website:  www.openfoam.com                      |
|    \\/     M anipulation  |                                                 |
\*---------------------------------------------------------------------------*/
FoamFile
{
    version     2.0;
    format      ascii;
    arch        "LSB;label=32;scalar=64";
    class       surfaceScalarField;
    location    "660";
    object      phi;
}
// * * * * * * * * * * * * * * * * * * * * * * * * * * * * * * * * * * * * * //

dimensions      [1 0 -1 0 0 0 0];

oriented        oriented;

internalField   nonuniform List<scalar> 
408640
(
-1302.46
1302.95
-2568.16
1265.71
-3763.01
1194.87
-4868.31
1105.34
-5881.44
1013.17
-6811.93
930.539
-7676.41
864.538
-8493.36
817.015
-9279.51
786.22
-10048
768.533
-10807.9
759.973
-11564.9
757.057
-12322
757.163
-13080.4
758.531
-13840.4
760.101
-14601.7
761.305
-15363.5
761.889
-16125.2
761.781
-16886.1
760.996
-17645.7
759.592
-18403.3
757.636
-19158.4
755.193
-19910.7
752.322
-20659.7
749.072
-21405.1
745.482
-22146.6
741.587
-22884
737.414
-23616.9
732.987
-24345.2
728.325
-25068.6
723.445
-25786.9
718.36
-26500
713.083
-27207.6
707.625
-27909.5
701.995
-28605.7
696.202
-29295.9
690.252
-29980.1
684.153
-30657.9
677.912
-31329.5
671.534
-31994.5
665.024
-32652.8
658.388
-33304.4
651.63
-33949.2
644.756
-34587
637.769
-35217.6
630.674
-35841.1
623.475
-36457.3
616.175
-37066
608.779
-37667.3
601.291
-38261.1
593.714
-38847.1
586.051
-39425.4
578.307
-39996
570.484
-40558.6
562.586
-41113.2
554.617
-41659.8
546.579
-42198.3
538.477
-42728.6
530.313
-43250.8
522.09
-43764.6
513.812
-44270.1
505.482
-44767.3
497.103
-45256
488.679
-45736.3
480.211
-46208
471.703
-46671.2
463.159
-47125.9
454.581
-47571.9
445.972
-48009.3
437.334
-48438
428.672
-48858.1
419.988
-49269.5
411.284
-49672.1
402.563
-50066
393.828
-50451.2
385.083
-50827.6
376.328
-51195.2
367.568
-51554.1
358.804
-51904.2
350.04
-52245.6
341.278
-52578.2
332.52
-52902.1
323.769
-53217.2
315.027
-53523.6
306.297
-53821.3
297.581
-54110.3
288.881
-54390.6
280.199
-54662.2
271.539
-54925.3
262.901
-55179.7
254.288
-55425.5
245.703
-55662.8
237.147
-55891.5
228.622
-56111.8
220.131
-56323.6
211.674
-56527
203.255
-56722
194.875
-56908.6
186.535
-57087
178.237
-57257.1
169.984
-57419
161.776
-57572.8
153.616
-57718.5
145.505
-57856
137.444
-57985.6
129.435
-58107.3
121.479
-58221
113.578
-58326.9
105.732
-58425
97.9444
-58515.4
90.2149
-58598.1
82.545
-58673.2
74.936
-58740.7
67.3888
-58800.8
59.9046
-58853.4
52.4843
-58898.7
45.1289
-58936.7
37.8394
-58967.5
30.6165
-58991.2
23.4612
-59007.7
16.3741
-59017.2
9.35612
-59019.8
2.40785
-59015.5
-4.47002
-59004.4
-11.2769
-58986.6
-18.0122
-58962.1
-24.6753
-58931
-31.2658
-58893.4
-37.7833
-58849.4
-44.2273
-58799
-50.5974
-58742.3
-56.8933
-58679.4
-63.1147
-58610.3
-69.2614
-58535.2
-75.333
-58454
-81.3294
-58367
-87.2505
-58274.1
-93.096
-58175.4
-98.866
-58071
-104.56
-57961
-110.179
-57845.5
-115.722
-57724.5
-121.189
-57598.2
-126.581
-57466.5
-131.897
-57329.5
-137.138
-57187.4
-142.303
-57040.2
-147.394
-56888
-152.409
-56730.9
-157.35
-56568.9
-162.217
-56402.1
-167.009
-56230.6
-171.728
-56054.4
-176.373
-55873.7
-180.944
-55688.4
-185.443
-55498.8
-189.87
-55304.8
-194.224
-55106.5
-198.507
-54904
-202.718
-54697.3
-206.859
-54486.6
-210.929
-54271.9
-214.93
-54053.3
-218.861
-53830.8
-222.724
-53604.5
-226.518
-53374.4
-230.245
-53140.7
-233.904
-52903.5
-237.497
-52662.7
-241.024
-52418.4
-244.486
-52170.7
-247.882
-51919.7
-251.215
-51665.5
-254.484
-51408
-257.69
-51147.4
-260.833
-50883.7
-263.915
-50617
-266.937
-50347.3
-269.897
-50074.7
-272.799
-49799.3
-275.641
-49521.1
-278.425
-49240.2
-281.151
-48956.6
-283.82
-48670.4
-286.434
-48381.6
-288.991
-48090.4
-291.494
-47796.6
-293.943
-47500.5
-296.339
-47202.1
-298.681
-46901.3
-300.972
-46598.4
-303.212
-46293.2
-305.401
-45985.9
-307.54
-45676.5
-309.63
-45365
-311.672
-45051.6
-313.666
-44736.2
-315.613
-44418.9
-317.514
-44099.8
-319.369
-43778.8
-321.179
-43456.1
-322.946
-43131.7
-324.669
-42805.6
-326.349
-42477.8
-327.987
-42148.5
-329.584
-41817.5
-331.14
-41485.1
-332.656
-41151.2
-334.133
-40815.9
-335.572
-40479.1
-336.973
-40141
-338.336
-39801.6
-339.663
-39460.9
-340.954
-39118.9
-342.21
-38775.7
-343.431
-38431.3
-344.618
-38085.8
-345.772
-37739.1
-346.894
-37391.4
-347.984
-37042.6
-349.042
-36692.7
-350.069
-36341.9
-351.067
-35990.1
-352.035
-35637.4
-352.974
-35283.7
-353.884
-34929.2
-354.768
-34573.8
-355.624
-34217.6
-356.453
-33860.6
-357.257
-33502.8
-358.035
-33144.2
-358.788
-32784.9
-359.518
-32424.9
-360.223
-32064.3
-360.905
-31703
-361.565
-31341
-362.203
-30978.4
-362.819
-30615.2
-363.414
-30251.5
-363.989
-29887.2
-364.544
-29522.3
-365.079
-29157
-365.595
-28791.1
-366.092
-28424.8
-366.572
-28058
-367.034
-27690.8
-367.478
-27323.1
-367.907
-26955
-368.318
-26586.5
-368.714
-26217.7
-369.095
-25848.5
-369.461
-25478.9
-369.812
-25109
-370.15
-24738.8
-370.473
-24368.2
-370.783
-23997.4
-371.081
-23626.3
-371.366
-23254.9
-371.638
-22883.2
-371.9
-22511.3
-372.149
-22139.1
-372.388
-21766.8
-372.616
-21394.2
-372.834
-21021.4
-373.041
-20648.4
-373.239
-20275.2
-373.428
-19901.8
-373.608
-19528.3
-373.779
-19154.6
-373.942
-18780.8
-374.097
-18406.8
-374.244
-18032.6
-374.383
-17658.4
-374.515
-17284
-374.64
-16909.4
-374.759
-16534.8
-374.871
-16160.1
-374.978
-15785.3
-375.078
-15410.3
-375.172
-15035.3
-375.262
-14660.2
-375.346
-14285
-375.425
-13909.8
-375.499
-13534.5
-375.569
-13159.1
-375.634
-12783.6
-375.696
-12408.1
-375.753
-12032.6
-375.807
-11657
-375.857
-11281.3
-375.904
-10905.6
-375.948
-10529.9
-375.989
-10154.1
-376.027
-9778.26
-376.062
-9402.42
-376.095
-9026.54
-376.125
-8650.63
-376.153
-8274.7
-376.179
-7898.75
-376.204
-7522.77
-376.226
-7146.77
-376.247
-6770.76
-376.266
-6394.72
-376.285
-6018.67
-376.302
-5642.6
-376.318
-5266.52
-376.333
-4890.42
-376.348
-4514.31
-376.362
-4138.18
-376.375
-3762.04
-376.389
-3385.89
-376.402
-3009.73
-376.415
-2633.55
-376.428
-2257.36
-376.44
-1881.16
-376.452
-1504.94
-376.464
-1128.72
-376.474
-752.484
-376.484
-376.243
-376.49
-376.493
-1280.5
2583.46
-2526.7
2511.92
-3707.71
2375.9
-4805.95
2203.61
-5818.08
2025.34
-6752.12
1864.63
-7622.86
1735.34
-8447.16
1641.38
-9240.59
1579.72
-10015.6
1543.58
-10780.9
1525.38
-11542.2
1518.43
-12302.6
1517.62
-13063.5
1519.5
-13825.3
1521.95
-14587.7
1523.82
-15350.3
1524.58
-16112.6
1524.06
-16873.8
1522.26
-17633.4
1519.28
-18390.9
1515.23
-19145.9
1510.24
-19897.9
1504.42
-20646.7
1497.86
-21391.8
1490.63
-22132.9
1482.8
-22869.9
1474.42
-23602.4
1465.55
-24330.2
1456.2
-25053.2
1446.42
-25771
1436.24
-26483.6
1425.67
-27190.7
1414.75
-27892.1
1403.48
-28587.8
1391.88
-29277.4
1379.98
-29961
1367.78
-30638.4
1355.29
-31309.4
1342.53
-31973.8
1329.51
-32631.7
1316.23
-33282.7
1302.72
-33926.9
1288.97
-34564.2
1274.99
-35194.3
1260.8
-35817.2
1246.4
-36432.8
1231.81
-37041.1
1217.02
-37641.8
1202.04
-38235
1186.89
-38820.5
1171.56
-39398.3
1156.07
-39968.3
1140.43
-40530.4
1124.64
-41084.5
1108.7
-41630.5
1092.63
-42168.5
1076.43
-42698.3
1060.1
-43219.9
1043.66
-43733.3
1027.11
-44238.3
1010.45
-44734.9
993.694
-45223.1
976.848
-45702.9
959.916
-46174.1
942.905
-46636.8
925.82
-47091
908.667
-47536.5
891.453
-47973.4
874.183
-48401.7
856.863
-48821.3
839.498
-49232.1
822.095
-49634.3
804.658
-50027.8
787.194
-50412.5
769.707
-50788.4
752.203
-51155.6
734.688
-51514.1
717.166
-51863.8
699.643
-52204.7
682.124
-52536.9
664.613
-52860.3
647.117
-53175
629.639
-53481
612.184
-53778.3
594.757
-54066.9
577.363
-54346.8
560.006
-54618.1
542.691
-54880.7
525.422
-55134.8
508.203
-55380.2
491.039
-55617.1
473.933
-55845.5
456.89
-56065.4
439.913
-56276.9
423.007
-56479.9
406.175
-56674.6
389.42
-56861
372.747
-57039
356.159
-57208.8
339.659
-57370.4
323.251
-57523.9
306.937
-57669.3
290.721
-57806.6
274.606
-57935.9
258.595
-58057.2
242.69
-58170.7
226.895
-58276.4
211.211
-58374.2
195.642
-58464.3
180.19
-58546.8
164.858
-58621.7
149.646
-58689
134.559
-58748.9
119.598
-58801.3
104.764
-58846.4
90.0608
-58884.2
75.4889
-58914.8
61.0503
-58938.3
46.7467
-58954.7
32.5797
-58964.1
18.5508
-58966.5
4.66144
-58962
-9.08718
-58950.8
-22.6938
-58932.8
-36.1572
-58908.2
-49.4764
-58877
-62.6504
-58839.3
-75.6783
-58795.2
-88.5592
-58744.7
-101.292
-58687.9
-113.877
-58624.9
-126.313
-58555.7
-138.599
-58480.5
-150.736
-58399.3
-162.722
-58312.2
-174.557
-58219.2
-186.241
-58120.5
-197.774
-58016.1
-209.156
-57906.1
-220.387
-57790.6
-231.466
-57669.6
-242.394
-57543.2
-253.171
-57411.5
-263.796
-57274.6
-274.271
-57132.5
-284.596
-56985.3
-294.77
-56833.1
-304.795
-56676
-314.671
-56514
-324.397
-56347.3
-333.976
-56175.8
-343.406
-55999.7
-352.69
-55819
-361.827
-55633.9
-370.819
-55444.3
-379.666
-55250.4
-388.369
-55052.1
-396.928
-54849.7
-405.345
-54643.2
-413.621
-54432.6
-421.756
-54218
-429.752
-53999.4
-437.609
-53777
-445.329
-53550.9
-452.912
-53321
-460.359
-53087.4
-467.673
-52850.3
-474.853
-52609.6
-481.902
-52365.5
-488.819
-52118
-495.608
-51867.2
-502.267
-51613.1
-508.8
-51355.8
-515.207
-51095.4
-521.49
-50831.8
-527.649
-50565.3
-533.687
-50295.8
-539.603
-50023.5
-545.401
-49748.2
-551.081
-49470.2
-556.644
-49189.5
-562.092
-48906.1
-567.427
-48620.2
-572.649
-48331.6
-577.76
-48040.6
-582.762
-47747.1
-587.655
-47451.2
-592.442
-47153
-597.123
-46852.5
-601.701
-46549.8
-606.176
-46244.8
-610.55
-45937.8
-614.825
-45628.6
-619.001
-45317.4
-623.081
-45004.3
-627.065
-44689.2
-630.956
-44372.2
-634.754
-44053.3
-638.461
-43732.6
-642.079
-43410.2
-645.608
-43086
-649.05
-42760.2
-652.408
-42432.7
-655.681
-42103.7
-658.871
-41773.1
-661.981
-41441
-665.01
-41107.4
-667.961
-40772.3
-670.835
-40435.9
-673.634
-40098.1
-676.358
-39759
-679.009
-39418.6
-681.588
-39076.9
-684.097
-38734.1
-686.537
-38390
-688.909
-38044.8
-691.215
-37698.5
-693.455
-37351.1
-695.632
-37002.6
-697.746
-36653.1
-699.799
-36302.6
-701.791
-35951.1
-703.725
-35598.8
-705.601
-35245.5
-707.42
-34891.3
-709.184
-34536.2
-710.894
-34180.4
-712.551
-33823.7
-714.156
-33466.3
-715.711
-33108.1
-717.216
-32749.2
-718.673
-32389.5
-720.082
-32029.2
-721.445
-31668.3
-722.763
-31306.7
-724.036
-30944.5
-725.267
-30581.7
-726.456
-30218.3
-727.603
-29854.4
-728.711
-29489.9
-729.78
-29124.9
-730.811
-28759.4
-731.804
-28393.5
-732.762
-28027.1
-733.684
-27660.2
-734.572
-27293
-735.427
-26925.3
-736.25
-26557.2
-737.04
-26188.7
-737.801
-25819.9
-738.531
-25450.7
-739.233
-25081.2
-739.906
-24711.3
-740.552
-24341.2
-741.171
-23970.8
-741.765
-23600
-742.334
-23229
-742.878
-22857.8
-743.399
-22486.3
-743.898
-22114.5
-744.374
-21742.6
-744.829
-21370.4
-745.264
-20998
-745.678
-20625.4
-746.074
-20252.6
-746.451
-19879.6
-746.809
-19506.5
-747.151
-19133.2
-747.476
-18759.8
-747.784
-18386.2
-748.077
-18012.5
-748.356
-17638.6
-748.619
-17264.6
-748.869
-16890.5
-749.106
-16516.3
-749.33
-16142
-749.542
-15767.6
-749.742
-15393.1
-749.93
-15018.5
-750.108
-14643.8
-750.276
-14269
-750.433
-13894.2
-750.581
-13519.3
-750.721
-13144.3
-750.851
-12769.3
-750.974
-12394.2
-751.088
-12019
-751.195
-11643.8
-751.296
-11268.6
-751.389
-10893.3
-751.476
-10518
-751.557
-10142.7
-751.633
-9767.26
-751.703
-9391.83
-751.768
-9016.38
-751.829
-8640.9
-751.885
-8265.39
-751.937
-7889.85
-751.985
-7514.3
-752.029
-7138.72
-752.071
-6763.13
-752.11
-6387.52
-752.146
-6011.89
-752.18
-5636.24
-752.212
-5260.58
-752.242
-4884.91
-752.271
-4509.22
-752.299
-4133.52
-752.326
-3757.8
-752.353
-3382.08
-752.379
-3006.33
-752.405
-2630.58
-752.431
-2254.81
-752.456
-1879.04
-752.48
-1503.25
-752.503
-1127.45
-752.524
-751.639
-752.542
-375.823
-752.556
-752.566
-1253.61
3837.07
-2475.96
3734.28
-3639.61
3539.58
-4728.47
3292.5
-5738.7
3035.62
-6676.68
2802.66
-7555.04
2613.75
-8388.64
2475.05
-9191.54
2382.68
-9975.19
2327.3
-10747.9
2298.21
-11515.3
2285.84
-12280.4
2282.82
-13044.9
2284.09
-13809.4
2286.51
-14573.9
2288.34
-15337.9
2288.73
-16101.2
2287.37
-16863.1
2284.23
-17623.2
2279.42
-18381
2273.1
-19136.1
2265.42
-19888.2
2256.54
-20636.8
2246.57
-21381.8
2235.63
-22122.7
2223.81
-22859.4
2211.18
-23591.6
2197.8
-24319.1
2183.74
-25041.7
2169.04
-25759.1
2153.73
-26471.3
2137.86
-27178
2121.45
-27879
2104.53
-28574.2
2087.12
-29263.4
2069.25
-29946.5
2050.93
-30623.4
2032.19
-31293.9
2013.05
-31957.9
1993.5
-32615.2
1973.59
-33265.8
1953.31
-33909.5
1932.68
-34546.2
1911.71
-35175.8
1890.43
-35798.3
1868.83
-36413.4
1846.93
-37021.1
1824.74
-37621.4
1802.28
-38214
1779.55
-38799
1756.56
-39376.3
1733.33
-39945.8
1709.87
-40507.3
1686.18
-41060.9
1662.27
-41606.5
1638.17
-42143.9
1613.87
-42673.2
1589.38
-43194.3
1564.72
-43707.2
1539.89
-44211.7
1514.91
-44707.8
1489.78
-45195.5
1464.52
-45674.8
1439.13
-46145.5
1413.61
-46607.8
1387.99
-47061.4
1362.27
-47506.5
1336.45
-47942.9
1310.55
-48370.7
1284.57
-48789.8
1258.53
-49200.2
1232.43
-49601.9
1206.28
-49994.9
1180.09
-50379.1
1153.87
-50754.6
1127.62
-51121.4
1101.35
-51479.4
1075.08
-51828.6
1048.8
-52169.1
1022.53
-52500.9
996.27
-52823.9
970.033
-53138.1
943.823
-53443.7
917.648
-53740.6
891.516
-54028.8
865.433
-54308.3
839.406
-54579.1
813.441
-54841.4
787.546
-55095
761.726
-55340.1
735.988
-55576.6
710.337
-55804.6
684.781
-56024.2
659.325
-56235.3
633.975
-56437.9
608.735
-56632.3
583.613
-56818.3
558.613
-56996
533.74
-57165.5
508.999
-57326.8
484.396
-57479.9
459.935
-57624.9
435.62
-57761.9
411.457
-57890.9
387.45
-58012
363.603
-58125.2
339.919
-58230.5
316.404
-58328.1
293.061
-58418
269.893
-58500.2
246.904
-58574.8
224.097
-58641.9
201.476
-58701.5
179.045
-58753.7
156.805
-58798.5
134.759
-58836.1
112.912
-58866.5
91.264
-58889.8
69.8189
-58905.9
48.5788
-58915.1
27.5458
-58917.4
6.72203
-58912.7
-13.8905
-58901.3
-34.2901
-58883.2
-54.4749
-58858.4
-74.4434
-58827
-94.194
-58789.2
-113.725
-58744.9
-133.037
-58694.2
-152.126
-58637.3
-170.993
-58574.2
-189.636
-58504.9
-208.056
-58429.6
-226.25
-58348.3
-244.218
-58261.1
-261.961
-58168
-279.477
-58069.2
-296.767
-57964.8
-313.83
-57854.7
-330.665
-57739.1
-347.274
-57618
-363.656
-57491.6
-379.811
-57359.8
-395.74
-57222.9
-411.443
-57080.8
-426.92
-56933.6
-442.172
-56781.4
-457.199
-56624.2
-472.003
-56462.3
-486.583
-56295.5
-500.941
-56124
-515.078
-55947.9
-528.994
-55767.3
-542.691
-55582.2
-556.169
-55392.6
-569.43
-55198.7
-582.475
-55000.5
-595.305
-54798.2
-607.922
-54591.7
-620.327
-54381.1
-632.521
-54166.6
-644.505
-53948.1
-656.282
-53725.8
-667.853
-53499.7
-679.219
-53269.9
-690.382
-53036.5
-701.344
-52799.5
-712.106
-52558.9
-722.671
-52314.9
-733.039
-52067.5
-743.214
-51816.8
-753.195
-51562.8
-762.987
-51305.7
-772.59
-51045.4
-782.006
-50782
-791.237
-50515.6
-800.286
-50246.3
-809.154
-49974.1
-817.843
-49699.1
-826.355
-49421.2
-834.693
-49140.7
-842.858
-48857.5
-850.853
-48571.7
-858.679
-48283.3
-866.339
-47992.5
-873.835
-47699.2
-881.168
-47403.5
-888.342
-47105.5
-895.358
-46805.2
-902.218
-46502.7
-908.924
-46198
-915.479
-45891.2
-921.885
-45582.3
-928.144
-45271.3
-934.257
-44958.4
-940.228
-44643.5
-946.058
-44326.7
-951.749
-44008.1
-957.304
-43687.7
-962.725
-43365.5
-968.014
-43041.6
-973.172
-42716.1
-978.202
-42388.9
-983.107
-42060.1
-987.888
-41729.8
-992.547
-41397.9
-997.086
-41064.6
-1001.51
-40729.9
-1005.81
-40393.7
-1010.01
-40056.2
-1014.09
-39717.4
-1018.06
-39377.3
-1021.93
-39035.9
-1025.68
-38693.4
-1029.34
-38349.6
-1032.89
-38004.7
-1036.35
-37658.7
-1039.71
-37311.6
-1042.97
-36963.4
-1046.13
-36614.3
-1049.21
-36264.1
-1052.19
-35913
-1055.09
-35560.9
-1057.9
-35207.9
-1060.63
-34854.1
-1063.27
-34499.4
-1065.83
-34143.9
-1068.31
-33787.5
-1070.72
-33430.4
-1073.05
-33072.6
-1075.3
-32714
-1077.48
-32354.7
-1079.59
-31994.8
-1081.63
-31634.2
-1083.61
-31272.9
-1085.52
-30911.1
-1087.36
-30548.6
-1089.14
-30185.6
-1090.86
-29822.1
-1092.52
-29458
-1094.12
-29093.3
-1095.66
-28728.2
-1097.15
-28362.7
-1098.58
-27996.6
-1099.96
-27630.1
-1101.29
-27263.2
-1102.57
-26895.9
-1103.81
-26528.2
-1104.99
-26160.1
-1106.13
-25791.7
-1107.22
-25422.9
-1108.27
-25053.7
-1109.28
-24684.3
-1110.25
-24314.5
-1111.17
-23944.5
-1112.06
-23574.1
-1112.91
-23203.5
-1113.73
-22832.7
-1114.51
-22461.5
-1115.26
-22090.2
-1115.97
-21718.6
-1116.65
-21346.8
-1117.3
-20974.8
-1117.92
-20602.6
-1118.51
-20230.2
-1119.08
-19857.7
-1119.61
-19485
-1120.12
-19112.1
-1120.61
-18739
-1121.07
-18365.8
-1121.51
-17992.5
-1121.93
-17619.1
-1122.32
-17245.5
-1122.69
-16871.8
-1123.05
-16498
-1123.38
-16124.1
-1123.7
-15750
-1124
-15375.9
-1124.28
-15001.8
-1124.55
-14627.5
-1124.8
-14253.1
-1125.03
-13878.7
-1125.25
-13504.2
-1125.46
-13129.7
-1125.66
-12755
-1125.84
-12380.4
-1126.01
-12005.6
-1126.17
-11630.9
-1126.32
-11256
-1126.46
-10881.2
-1126.59
-10506.3
-1126.71
-10131.3
-1126.82
-9756.34
-1126.93
-9381.33
-1127.02
-9006.29
-1127.11
-8631.23
-1127.2
-8256.14
-1127.28
-7881.02
-1127.35
-7505.89
-1127.41
-7130.73
-1127.48
-6755.55
-1127.53
-6380.36
-1127.59
-6005.15
-1127.64
-5629.93
-1127.69
-5254.69
-1127.73
-4879.43
-1127.77
-4504.17
-1127.82
-4128.89
-1127.86
-3753.59
-1127.9
-3378.28
-1127.94
-3002.97
-1127.97
-2627.63
-1128.01
-2252.29
-1128.05
-1876.93
-1128.09
-1501.56
-1128.12
-1126.18
-1128.15
-750.796
-1128.18
-375.4
-1128.2
-1128.21
-1218.61
5055.69
-2409.95
4925.64
-3550.95
4680.6
-4627.42
4368.99
-5635.04
4043.28
-6578.11
3745.78
-7466.54
3502.23
-8312.6
3321.18
-9128.31
3198.46
-9923.83
3122.89
-10706.9
3081.3
-11482.7
3061.71
-12254.5
3054.77
-13024.3
3053.94
-13792.8
3055.11
-14560.4
3055.92
-15326.8
3055.18
-16091.7
3052.41
-16854.9
3047.5
-17616
3040.53
-18374.5
3031.67
-19130.1
3021.1
-19882.5
3008.99
-20631.4
2995.49
-21376.4
2980.73
-22117.4
2964.83
-22854.1
2947.88
-23586.2
2929.96
-24313.5
2911.13
-25035.9
2891.46
-25753.1
2871
-26465
2849.79
-27171.4
2827.87
-27872.1
2805.27
-28567
2782.03
-29255.9
2758.18
-29938.7
2733.74
-30615.2
2708.73
-31285.3
2683.18
-31948.9
2657.11
-32605.8
2630.55
-33256
2603.49
-33899.3
2575.98
-34535.6
2548.02
-35164.8
2519.62
-35786.8
2490.82
-36401.5
2461.61
-37008.8
2432.02
-37608.6
2402.07
-38200.8
2371.76
-38785.3
2341.11
-39362.1
2310.13
-39931.1
2278.84
-40492.2
2247.26
-41045.4
2215.38
-41590.5
2183.24
-42127.5
2150.84
-42656.3
2118.19
-43176.9
2085.31
-43689.3
2052.21
-44193.3
2018.9
-44689
1985.4
-45176.2
1951.72
-45655
1917.86
-46125.3
1883.85
-46587
1849.69
-47040.2
1815.39
-47484.8
1780.97
-47920.8
1746.44
-48348.1
1711.81
-48766.7
1677.1
-49176.6
1642.3
-49577.9
1607.44
-49970.4
1572.53
-50354.2
1537.57
-50729.2
1502.57
-51095.5
1467.56
-51453
1432.53
-51801.8
1397.5
-52141.8
1362.48
-52473.1
1327.47
-52795.7
1292.5
-53109.5
1257.56
-53414.6
1222.67
-53711.1
1187.83
-53998.8
1153.06
-54277.9
1118.37
-54548.3
1083.76
-54810.1
1049.24
-55063.3
1014.82
-55308
980.511
-55544.1
946.32
-55771.7
912.255
-55990.8
878.323
-56201.5
844.532
-56403.8
810.89
-56597.7
777.404
-56783.3
744.08
-56960.6
710.927
-57129.7
677.95
-57290.6
645.157
-57443.4
612.553
-57588
580.146
-57724.7
547.94
-57853.3
515.941
-57974
484.157
-58086.8
452.591
-58191.8
421.249
-58289.1
390.136
-58378.6
359.258
-58460.5
328.618
-58534.7
298.222
-58601.5
268.073
-58660.8
238.177
-58712.7
208.536
-58757.3
179.155
-58794.6
150.038
-58824.7
121.187
-58847.6
92.6068
-58863.5
64.2997
-58872.4
36.2689
-58874.4
8.51706
-58869.5
-18.9531
-58857.8
-46.1392
-58839.4
-73.0389
-58814.4
-99.6502
-58782.8
-125.971
-58744.7
-151.999
-58700.2
-177.734
-58649.4
-203.173
-58592.2
-228.315
-58528.9
-253.16
-58459.4
-277.705
-58383.9
-301.951
-58302.5
-325.895
-58215.1
-349.539
-58121.9
-372.88
-58022.9
-395.919
-57918.3
-418.656
-57808.1
-441.09
-57692.3
-463.221
-57571.1
-485.05
-57444.5
-506.577
-57312.7
-527.802
-57175.6
-548.726
-57033.4
-569.348
-56886.1
-589.671
-56733.8
-609.694
-56576.6
-629.419
-56414.5
-648.846
-56247.7
-667.977
-56076.2
-686.813
-55900
-705.355
-55719.3
-723.604
-55534.1
-741.563
-55344.6
-759.231
-55150.6
-776.612
-54952.4
-793.706
-54750.1
-810.516
-54543.6
-827.043
-54333
-843.289
-54118.5
-859.256
-53900
-874.947
-53677.7
-890.362
-53451.7
-905.505
-53221.9
-920.377
-52988.5
-934.981
-52751.5
-949.319
-52511
-963.393
-52267
-977.206
-52019.7
-990.761
-51769
-1004.06
-51515.2
-1017.1
-51258.1
-1029.89
-50997.9
-1042.44
-50734.6
-1054.74
-50468.3
-1066.79
-50199.1
-1078.6
-49927
-1090.18
-49652
-1101.52
-49374.3
-1112.62
-49093.9
-1123.5
-48810.8
-1134.15
-48525.2
-1144.57
-48236.9
-1154.78
-47946.2
-1164.76
-47653.1
-1174.53
-47357.6
-1184.09
-47059.7
-1193.43
-46759.6
-1202.57
-46457.3
-1211.5
-46152.7
-1220.23
-45846.1
-1228.76
-45537.4
-1237.1
-45226.6
-1245.24
-44913.9
-1253.2
-44599.2
-1260.96
-44282.6
-1268.54
-43964.2
-1275.94
-43644
-1283.16
-43322.1
-1290.2
-42998.4
-1297.07
-42673.1
-1303.77
-42346.1
-1310.3
-42017.5
-1316.67
-41687.4
-1322.87
-41355.8
-1328.92
-41022.8
-1334.81
-40688.3
-1340.54
-40352.4
-1346.13
-40015.2
-1351.56
-39676.6
-1356.85
-39336.8
-1362
-38995.7
-1367
-38653.4
-1371.87
-38309.9
-1376.6
-37965.3
-1381.2
-37619.6
-1385.67
-37272.7
-1390.01
-36924.9
-1394.23
-36576
-1398.32
-36226.1
-1402.3
-35875.3
-1406.15
-35523.5
-1409.9
-35170.9
-1413.52
-34817.3
-1417.04
-34462.9
-1420.45
-34107.7
-1423.76
-33751.7
-1426.96
-33395
-1430.06
-33037.4
-1433.06
-32679.2
-1435.96
-32320.2
-1438.77
-31960.6
-1441.49
-31600.4
-1444.12
-31239.4
-1446.66
-30877.9
-1449.11
-30515.8
-1451.48
-30153.2
-1453.77
-29789.9
-1455.97
-29426.2
-1458.1
-29061.9
-1460.16
-28697.2
-1462.14
-28332
-1464.05
-27966.3
-1465.89
-27600.1
-1467.65
-27233.6
-1469.36
-26866.7
-1471
-26499.3
-1472.57
-26131.6
-1474.09
-25763.5
-1475.54
-25395.1
-1476.94
-25026.3
-1478.28
-24657.2
-1479.57
-24287.9
-1480.8
-23918.2
-1481.98
-23548.2
-1483.11
-23178
-1484.2
-22807.5
-1485.24
-22436.8
-1486.23
-22065.8
-1487.18
-21694.6
-1488.08
-21323.2
-1488.95
-20951.6
-1489.77
-20579.8
-1490.56
-20207.8
-1491.31
-19835.7
-1492.02
-19463.3
-1492.7
-19090.8
-1493.34
-18718.2
-1493.96
-18345.4
-1494.54
-17972.5
-1495.09
-17599.4
-1495.62
-17226.3
-1496.11
-16853
-1496.58
-16479.6
-1497.03
-16106
-1497.45
-15732.4
-1497.85
-15358.7
-1498.22
-14985
-1498.57
-14611.1
-1498.91
-14237.2
-1499.22
-13863.1
-1499.51
-13489.1
-1499.79
-13114.9
-1500.05
-12740.7
-1500.29
-12366.4
-1500.52
-11992.1
-1500.73
-11617.8
-1500.93
-11243.4
-1501.11
-10868.9
-1501.29
-10494.4
-1501.45
-10119.9
-1501.59
-9745.35
-1501.73
-9370.76
-1501.86
-8996.14
-1501.98
-8621.49
-1502.09
-8246.82
-1502.19
-7872.13
-1502.29
-7497.41
-1502.38
-7122.68
-1502.46
-6747.92
-1502.54
-6373.15
-1502.61
-5998.37
-1502.67
-5623.56
-1502.74
-5248.75
-1502.8
-4873.92
-1502.85
-4499.07
-1502.91
-4124.22
-1502.96
-3749.35
-1503.01
-3374.46
-1503.07
-2999.57
-1503.12
-2624.66
-1503.17
-2249.74
-1503.22
-1874.81
-1503.27
-1499.87
-1503.31
-1124.91
-1503.36
-749.949
-1503.39
-374.978
-1503.42
-1503.44
-1187.79
6243.49
-2351.77
6089.63
-3472.37
5801.23
-4537.09
5433.75
-5541.38
5047.61
-6487.97
4692.41
-7384.52
4398.85
-8241.15
4177.86
-9068.08
4025.46
-9874.3
3929.17
-10666.8
3873.89
-11450.7
3845.63
-12229.1
3833.3
-13004.2
3829.07
-13776.9
3827.88
-14547.7
3826.78
-15316.7
3824.21
-16083.6
3819.46
-16848.4
3812.33
-17610.6
3802.85
-18370.1
3791.18
-19126.4
3777.49
-19879.4
3761.98
-20628.6
3744.81
-21374
3726.12
-22115.1
3706.04
-22851.9
3684.69
-23584
3662.15
-24311.4
3638.51
-25033.7
3613.82
-25750.8
3588.16
-26462.5
3561.58
-27168.8
3534.12
-27869.3
3505.82
-28563.9
3476.73
-29252.6
3446.87
-29935.1
3416.28
-30611.4
3384.99
-31281.2
3353.03
-31944.5
3320.42
-32601.1
3287.19
-33250.9
3253.35
-33893.9
3218.94
-34529.8
3183.97
-35158.7
3148.47
-35780.3
3112.45
-36394.6
3075.93
-37001.5
3038.93
-37601
3001.48
-38192.8
2963.58
-38777
2925.26
-39353.4
2886.53
-39922
2847.42
-40482.7
2807.93
-41035.4
2768.08
-41580.1
2727.9
-42116.7
2687.39
-42645.1
2646.58
-43165.3
2605.48
-43677.2
2564.1
-44180.8
2522.47
-44676
2480.59
-45162.8
2438.48
-45641.2
2396.16
-46111
2353.64
-46572.3
2310.94
-47025.1
2268.07
-47469.2
2225.05
-47904.7
2181.89
-48331.6
2138.61
-48749.8
2095.21
-49159.3
2051.72
-49560
2008.15
-49952.1
1964.51
-50335.4
1920.81
-50710
1877.08
-51075.9
1833.31
-51432.9
1789.53
-51781.3
1745.75
-52120.9
1701.98
-52451.7
1658.23
-52773.8
1614.51
-53087.2
1570.84
-53391.9
1527.24
-53687.9
1483.7
-53975.2
1440.25
-54253.8
1396.89
-54523.8
1353.63
-54785.1
1310.49
-55037.9
1267.48
-55282.1
1224.6
-55517.8
1181.87
-55745
1139.3
-55963.7
1096.89
-56173.9
1054.67
-56375.8
1012.62
-56569.3
970.776
-56754.5
929.133
-56931.4
887.702
-57100.1
846.492
-57260.6
805.512
-57412.9
764.77
-57557.2
724.272
-57693.4
684.027
-57821.7
644.041
-57942
604.323
-58054.5
564.879
-58159.1
525.715
-58255.9
486.837
-58345.1
448.253
-58426.6
409.967
-58500.5
371.985
-58566.9
334.314
-58625.9
296.958
-58677.4
259.921
-58721.6
223.21
-58758.6
186.828
-58788.4
150.78
-58811
115.069
-58826.6
79.7006
-58835.2
44.6774
-58836.8
10.0031
-58831.6
-24.319
-58819.7
-58.2859
-58801
-91.8947
-58775.7
-125.143
-58743.8
-158.028
-58705.5
-190.547
-58660.7
-222.699
-58609.6
-254.482
-58552.2
-285.893
-58488.6
-316.932
-58418.9
-347.597
-58343.1
-377.888
-58261.4
-407.802
-58173.8
-437.339
-58080.4
-466.499
-57981.2
-495.282
-57876.4
-523.686
-57766
-551.712
-57650
-579.359
-57528.7
-606.629
-57401.9
-633.52
-57269.9
-660.035
-57132.6
-686.172
-56990.3
-711.934
-56842.8
-737.32
-56690.4
-762.333
-56533
-786.972
-56370.9
-811.239
-56203.9
-835.137
-56032.3
-858.665
-55856
-881.826
-55675.2
-904.621
-55489.9
-927.052
-55300.2
-949.121
-55106.2
-970.831
-54908
-992.183
-54705.5
-1013.18
-54499
-1033.82
-54288.3
-1054.11
-54073.8
-1074.06
-53855.3
-1093.65
-53632.9
-1112.91
-53406.8
-1131.82
-53177
-1150.39
-52943.6
-1168.63
-52706.6
-1186.54
-52466.1
-1204.12
-52222.2
-1221.37
-51974.8
-1238.3
-51724.2
-1254.9
-51470.3
-1271.19
-51213.3
-1287.17
-50953.1
-1302.83
-50689.9
-1318.19
-50423.7
-1333.25
-50154.5
-1348
-49882.4
-1362.45
-49607.6
-1376.61
-49329.9
-1390.48
-49049.6
-1404.06
-48766.6
-1417.36
-48481
-1430.38
-48192.9
-1443.12
-47902.3
-1455.59
-47609.3
-1467.79
-47313.9
-1479.72
-47016.1
-1491.38
-46716.1
-1502.79
-46413.9
-1513.95
-46109.5
-1524.85
-45803
-1535.5
-45494.4
-1545.91
-45183.8
-1556.08
-44871.3
-1566
-44556.7
-1575.7
-44240.4
-1585.16
-43922.1
-1594.4
-43602.1
-1603.41
-43280.3
-1612.21
-42956.8
-1620.78
-42631.7
-1629.15
-42304.9
-1637.3
-41976.6
-1645.25
-41646.7
-1652.99
-41315.3
-1660.54
-40982.4
-1667.89
-40648.2
-1675.05
-40312.5
-1682.02
-39975.5
-1688.8
-39637.2
-1695.41
-39297.6
-1701.83
-38956.7
-1708.08
-38614.7
-1714.15
-38271.5
-1720.06
-37927.1
-1725.8
-37581.6
-1731.38
-37235.1
-1736.8
-36887.5
-1742.06
-36538.9
-1747.17
-36189.3
-1752.13
-35838.7
-1756.94
-35487.2
-1761.61
-35134.8
-1766.14
-34781.6
-1770.53
-34427.5
-1774.79
-34072.6
-1778.91
-33716.9
-1782.9
-33360.4
-1786.77
-33003.2
-1790.51
-32645.2
-1794.14
-32286.6
-1797.64
-31927.3
-1801.03
-31567.3
-1804.31
-31206.7
-1807.48
-30845.6
-1810.54
-30483.8
-1813.5
-30121.4
-1816.35
-29758.5
-1819.1
-29395.1
-1821.76
-29031.2
-1824.32
-28666.8
-1826.79
-28301.9
-1829.17
-27936.5
-1831.46
-27570.8
-1833.67
-27204.6
-1835.8
-26838
-1837.84
-26471
-1839.8
-26103.6
-1841.69
-25735.9
-1843.51
-25367.8
-1845.25
-24999.4
-1846.92
-24630.7
-1848.52
-24261.7
-1850.06
-23892.4
-1851.53
-23522.8
-1852.95
-23152.9
-1854.3
-22782.8
-1855.59
-22412.4
-1856.83
-22041.9
-1858.01
-21671
-1859.14
-21300
-1860.21
-20928.8
-1861.24
-20557.4
-1862.22
-20185.8
-1863.15
-19814
-1864.04
-19442
-1864.89
-19069.9
-1865.69
-18697.7
-1866.46
-18325.3
-1867.18
-17952.7
-1867.87
-17580.1
-1868.52
-17207.3
-1869.14
-16834.4
-1869.73
-16461.4
-1870.28
-16088.3
-1870.8
-15715.1
-1871.3
-15341.8
-1871.76
-14968.4
-1872.2
-14594.9
-1872.62
-14221.4
-1873
-13847.8
-1873.37
-13474.1
-1873.71
-13100.4
-1874.03
-12726.6
-1874.34
-12352.7
-1874.62
-11978.8
-1874.88
-11604.9
-1875.13
-11230.9
-1875.36
-10856.8
-1875.57
-10482.7
-1875.77
-10108.6
-1875.96
-9734.48
-1876.13
-9360.3
-1876.29
-8986.1
-1876.43
-8611.86
-1876.57
-8237.61
-1876.7
-7863.33
-1876.82
-7489.03
-1876.93
-7114.71
-1877.03
-6740.37
-1877.12
-6366.02
-1877.21
-5991.65
-1877.29
-5617.27
-1877.37
-5242.87
-1877.44
-4868.46
-1877.51
-4494.03
-1877.58
-4119.59
-1877.65
-3745.14
-1877.71
-3370.68
-1877.78
-2996.21
-1877.84
-2621.72
-1877.9
-2247.22
-1877.97
-1872.71
-1878.03
-1498.18
-1878.08
-1123.65
-1878.14
-749.107
-1878.18
-374.556
-1878.22
-1878.25
-1157.68
7401.18
-2294.93
7226.88
-3395.34
6901.66
-4447.98
6486.41
-5448.22
6047.89
-6397.43
5641.68
-7301.33
5302.8
-8167.96
5044.56
-9005.86
4863.43
-9822.79
4746.17
-10625.1
4676.23
-11417.4
4638
-12202.9
4618.94
-12983.8
4610.04
-13761.2
4605.39
-14535.8
4601.45
-15307.9
4596.28
-16077.3
4588.95
-16844
4579.12
-17607.8
4566.75
-18368.6
4551.95
-19125.9
4534.91
-19879.7
4515.79
-20629.6
4494.78
-21375.4
4472.02
-22117
4447.66
-22854.1
4421.82
-23586.5
4394.58
-24314
4366.05
-25036.4
4336.3
-25753.6
4305.39
-26465.3
4273.39
-27171.5
4240.35
-27872
4206.32
-28566.6
4171.34
-29255.1
4135.46
-29937.5
4098.7
-30613.6
4061.11
-31283.3
4022.71
-31946.4
3983.54
-32602.8
3943.63
-33252.5
3903
-33895.2
3861.68
-34530.9
3819.69
-35159.5
3777.06
-35780.8
3733.82
-36394.9
3689.97
-37001.5
3645.56
-37600.6
3600.6
-38192.2
3555.1
-38776
3509.1
-39352.1
3462.62
-39920.4
3415.66
-40480.7
3368.27
-41033.1
3320.44
-41577.5
3272.21
-42113.7
3223.6
-42641.8
3174.61
-43161.6
3125.28
-43673.1
3075.62
-44176.4
3025.65
-44671.2
2975.39
-45157.6
2924.85
-45635.6
2874.06
-46105
2823.04
-46565.9
2771.79
-47018.3
2720.35
-47462
2668.72
-47897.1
2616.92
-48323.5
2564.98
-48741.3
2512.9
-49150.4
2460.72
-49550.7
2408.43
-49942.3
2356.06
-50325.2
2303.62
-50699.4
2251.14
-51064.8
2198.62
-51421.4
2146.09
-51769.3
2093.55
-52108.4
2041.02
-52438.8
1988.53
-52760.5
1936.07
-53073.4
1883.68
-53377.6
1831.35
-53673.2