/*--------------------------------*- C++ -*----------------------------------*\
| =========                 |                                                 |
| \\      /  F ield         | OpenFOAM: The Open Source CFD Toolbox           |
|  \\    /   O peration     | Version:  2212                                  |
|   \\  /    A nd           | Website:  www.openfoam.com                      |
|    \\/     M anipulation  |                                                 |
\*---------------------------------------------------------------------------*/
FoamFile
{
    version     2.0;
    format      ascii;
    arch        "LSB;label=32;scalar=64";
    class       volScalarField;
    location    "90";
    object      p_rgh_0;
}
// * * * * * * * * * * * * * * * * * * * * * * * * * * * * * * * * * * * * * //

dimensions      [1 -1 -2 0 0 0 0];

internalField   nonuniform List<scalar> 
204800
(
-13.5945
-13.5876
-13.5739
-13.5533
-13.5259
-13.4916
-13.4505
-13.4026
-13.3479
-13.2864
-13.2181
-13.1432
-13.0617
-12.9736
-12.879
-12.778
-12.6707
-12.5571
-12.4373
-12.3113
-12.1794
-12.0414
-11.8976
-11.7479
-11.5926
-11.4317
-11.2653
-11.0935
-10.9163
-10.734
-10.5465
-10.354
-10.1566
-9.95436
-9.74741
-9.53585
-9.31976
-9.09925
-8.87443
-8.64538
-8.41222
-8.17505
-7.93396
-7.68907
-7.44048
-7.18829
-6.9326
-6.67354
-6.41119
-6.14567
-5.87708
-5.60553
-5.33114
-5.054
-4.77422
-4.49192
-4.2072
-3.92016
-3.63092
-3.33957
-3.04624
-2.75101
-2.454
-2.15532
-1.85506
-1.55333
-1.25023
-0.945858
-0.640324
-0.333722
-0.0261497
0.282294
0.591515
0.901418
1.21191
1.5229
1.8343
2.14601
2.45796
2.77005
3.08221
3.39435
3.70638
4.01824
4.32984
4.64111
4.95198
5.26237
5.57222
5.88146
6.19002
6.49783
6.80484
7.11099
7.41622
7.72046
8.02367
8.3258
8.62679
8.92659
9.22515
9.52244
9.8184
10.113
10.4062
10.6979
10.9882
11.2769
11.5641
11.8497
12.1337
12.4161
12.6968
12.9758
13.253
13.5285
13.8023
14.0742
14.3444
14.6127
14.8791
15.1437
15.4065
15.6673
15.9262
16.1833
16.4384
16.6915
16.9427
17.192
17.4393
17.6846
17.928
18.1694
18.4088
18.6463
18.8817
19.1152
19.3467
19.5762
19.8037
20.0293
20.2528
20.4744
20.694
20.9116
21.1273
21.341
21.5527
21.7625
21.9703
22.1762
22.3801
22.5821
22.7821
22.9803
23.1765
23.3708
23.5633
23.7538
23.9425
24.1292
24.3141
24.4972
24.6784
24.8578
25.0353
25.211
25.3849
25.557
25.7274
25.8959
26.0627
26.2277
26.3909
26.5524
26.7122
26.8703
27.0267
27.1813
27.3343
27.4856
27.6352
27.7832
27.9295
28.0742
28.2173
28.3588
28.4986
28.6369
28.7736
28.9087
29.0422
29.1742
29.3047
29.4336
29.561
29.6869
29.8114
29.9343
30.0557
30.1757
30.2942
30.4113
30.527
30.6412
30.754
30.8654
30.9754
31.0841
31.1913
31.2972
31.4017
31.5049
31.6068
31.7073
31.8065
31.9044
32.001
32.0963
32.1904
32.2831
32.3746
32.4649
32.5539
32.6417
32.7283
32.8136
32.8978
32.9807
33.0625
33.143
33.2224
33.3007
33.3778
33.4537
33.5285
33.6022
33.6747
33.7462
33.8165
33.8858
33.9539
34.021
34.087
34.1519
34.2158
34.2786
34.3404
34.4011
34.4608
34.5195
34.5772
34.6339
34.6895
34.7442
34.7979
34.8506
34.9023
34.9531
35.0029
35.0517
35.0996
35.1466
35.1926
35.2377
35.2818
35.325
35.3674
35.4088
35.4493
35.4889
35.5276
35.5655
35.6024
35.6385
35.6737
35.708
35.7415
35.7741
35.8059
35.8368
35.8668
35.8961
35.9245
35.952
35.9787
36.0046
36.0297
36.0539
36.0774
36.1
36.1218
36.1428
36.163
36.1824
36.201
36.2189
36.2359
36.2521
36.2676
36.2822
36.2961
36.3092
36.3215
36.333
36.3438
36.3538
36.363
36.3714
36.3791
36.386
36.3921
36.3975
36.4021
36.4059
36.4089
36.4112
36.4128
36.4135
-13.5406
-13.5339
-13.5205
-13.5004
-13.4735
-13.44
-13.3998
-13.3529
-13.2993
-13.2392
-13.1724
-13.099
-13.0192
-12.9328
-12.84
-12.7408
-12.6352
-12.5234
-12.4053
-12.281
-12.1507
-12.0143
-11.8719
-11.7237
-11.5697
-11.41
-11.2447
-11.0739
-10.8977
-10.7162
-10.5295
-10.3377
-10.1409
-9.93921
-9.73277
-9.52167
-9.30602
-9.08592
-8.86148
-8.63281
-8.40002
-8.16321
-7.92248
-7.67795
-7.42972
-7.17789
-6.92258
-6.66389
-6.40193
-6.1368
-5.86861
-5.59747
-5.32348
-5.04676
-4.76741
-4.48554
-4.20126
-3.91467
-3.62587
-3.33499
-3.04211
-2.74736
-2.45082
-2.15262
-1.85284
-1.5516
-1.24899
-0.945121
-0.640088
-0.333992
-0.0269301
0.281
0.589704
0.899087
1.20906
1.51952
1.83039
2.14157
2.45298
2.76454
3.07615
3.38775
3.69924
4.01056
4.32161
4.63234
4.94266
5.2525
5.5618
5.87048
6.17849
6.48575
6.79221
7.09781
7.40248
7.70617
8.00883
8.31041
8.61084
8.91009
9.20811
9.50485
9.80027
10.0943
10.387
10.6782
10.9679
11.2561
11.5427
11.8278
12.1113
12.3931
12.6732
12.9517
13.2284
13.5034
13.7766
14.0481
14.3177
14.5855
14.8514
15.1155
15.3778
15.6381
15.8965
16.153
16.4076
16.6603
16.911
17.1598
17.4066
17.6515
17.8944
18.1353
18.3743
18.6112
18.8462
19.0792
19.3103
19.5393
19.7664
19.9915
20.2146
20.4357
20.6549
20.8721
21.0873
21.3006
21.5119
21.7212
21.9286
22.1341
22.3376
22.5392
22.7389
22.9366
23.1325
23.3264
23.5184
23.7086
23.8968
24.0832
24.2678
24.4505
24.6313
24.8103
24.9875
25.1629
25.3364
25.5082
25.6781
25.8463
26.0128
26.1774
26.3404
26.5015
26.661
26.8188
26.9748
27.1291
27.2818
27.4328
27.5821
27.7298
27.8758
28.0202
28.163
28.3042
28.4437
28.5817
28.7181
28.8529
28.9862
29.118
29.2481
29.3768
29.504
29.6296
29.7538
29.8765
29.9977
30.1174
30.2357
30.3525
30.4679
30.5819
30.6945
30.8057
30.9155
31.0239
31.1309
31.2366
31.3409
31.4438
31.5455
31.6458
31.7448
31.8425
31.9389
32.034
32.1279
32.2205
32.3118
32.4019
32.4907
32.5783
32.6647
32.7498
32.8338
32.9166
32.9982
33.0786
33.1578
33.2359
33.3128
33.3886
33.4633
33.5368
33.6092
33.6805
33.7507
33.8198
33.8878
33.9547
34.0206
34.0854
34.1491
34.2118
34.2734
34.334
34.3936
34.4522
34.5098
34.5663
34.6219
34.6764
34.73
34.7826
34.8342
34.8848
34.9345
34.9833
35.0311
35.0779
35.1238
35.1688
35.2129
35.2561
35.2983
35.3396
35.38
35.4196
35.4582
35.496
35.5328
35.5688
35.604
35.6382
35.6716
35.7042
35.7359
35.7667
35.7967
35.8259
35.8542
35.8817
35.9084
35.9342
35.9592
35.9834
36.0068
36.0294
36.0512
36.0721
36.0923
36.1116
36.1302
36.148
36.165
36.1812
36.1966
36.2112
36.2251
36.2381
36.2504
36.2619
36.2727
36.2826
36.2918
36.3002
36.3079
36.3148
36.3209
36.3262
36.3308
36.3346
36.3377
36.34
36.3415
36.3423
-13.5403
-13.5336
-13.5203
-13.5002
-13.4735
-13.4401
-13.4001
-13.3534
-13.3
-13.2401
-13.1736
-13.1006
-13.021
-12.935
-12.8425
-12.7437
-12.6385
-12.527
-12.4093
-12.2854
-12.1554
-12.0193
-11.8773
-11.7294
-11.5757
-11.4162
-11.2511
-11.0805
-10.9045
-10.7231
-10.5364
-10.3446
-10.1479
-9.94617
-9.73967
-9.52849
-9.31273
-9.0925
-8.86792
-8.63909
-8.40613
-8.16914
-7.92823
-7.68351
-7.4351
-7.18309
-6.92759
-6.66872
-6.40658
-6.14127
-5.87291
-5.60161
-5.32746
-5.05058
-4.77108
-4.48906
-4.20463
-3.9179
-3.62897
-3.33796
-3.04496
-2.75008
-2.45343
-2.15511
-1.85522
-1.55388
-1.25117
-0.947204
-0.642081
-0.335899
-0.0287557
0.279252
0.588028
0.897479
1.20751
1.51803
1.82896
2.14019
2.45165
2.76325
3.07491
3.38654
3.69806
4.0094
4.32048
4.63122
4.94156
5.25141
5.56072
5.8694
6.17741
6.48467
6.79112
7.09671
7.40137
7.70505
8.00769
8.30924
8.60965
8.90887
9.20686
9.50356
9.79894
10.093
10.3856
10.6767
10.9664
11.2545
11.5411
11.8262
12.1096
12.3913
12.6714
12.9498
13.2265
13.5014
13.7745
14.0459
14.3155
14.5832
14.8491
15.1131
15.3752
15.6355
15.8939
16.1503
16.4048
16.6574
16.9081
17.1567
17.4035
17.6483
17.8911
18.1319
18.3708
18.6077
18.8426
19.0755
19.3064
19.5354
19.7624
19.9874
20.2104
20.4315
20.6506
20.8677
21.0828
21.296
21.5072
21.7165
21.9238
22.1291
22.3326
22.5341
22.7337
22.9313
23.1271
23.3209
23.5129
23.7029
23.8911
24.0774
24.2619
24.4445
24.6252
24.8042
24.9813
25.1565
25.33
25.5017
25.6716
25.8397
26.0061
26.1706
26.3335
26.4946
26.654
26.8117
26.9676
27.1219
27.2745
27.4254
27.5746
27.7222
27.8682
28.0125
28.1552
28.2963
28.4358
28.5737
28.7101
28.8448
28.9781
29.1097
29.2399
29.3685
29.4956
29.6211
29.7452
29.8678
29.989
30.1087
30.2269
30.3437
30.459
30.573
30.6855
30.7966
30.9063
31.0147
31.1217
31.2273
31.3315
31.4345
31.536
31.6363
31.7353
31.8329
31.9293
32.0243
32.1181
32.2107
32.3019
32.392
32.4808
32.5683
32.6547
32.7398
32.8237
32.9064
32.988
33.0684
33.1476
33.2256
33.3025
33.3782
33.4529
33.5263
33.5987
33.67
33.7401
33.8092
33.8772
33.9441
34.0099
34.0747
34.1384
34.201
34.2626
34.3232
34.3828
34.4413
34.4988
34.5554
34.6109
34.6654
34.719
34.7715
34.8231
34.8738
34.9234
34.9722
35.0199
35.0668
35.1127
35.1576
35.2017
35.2448
35.287
35.3283
35.3687
35.4082
35.4469
35.4846
35.5215
35.5574
35.5926
35.6268
35.6602
35.6927
35.7244
35.7552
35.7852
35.8144
35.8427
35.8702
35.8968
35.9226
35.9476
35.9718
35.9952
36.0178
36.0395
36.0605
36.0806
36.1
36.1186
36.1363
36.1533
36.1695
36.1849
36.1995
36.2134
36.2264
36.2387
36.2502
36.2609
36.2709
36.2801
36.2885
36.2961
36.303
36.3091
36.3145
36.3191
36.3229
36.3259
36.3282
36.3298
36.3305
-13.501
-13.4944
-13.4813
-13.4616
-13.4354
-13.4027
-13.3634
-13.3176
-13.2653
-13.2065
-13.1413
-13.0696
-12.9914
-12.9069
-12.816
-12.7187
-12.6152
-12.5053
-12.3892
-12.267
-12.1386
-12.0041
-11.8636
-11.7171
-11.5648
-11.4066
-11.2428
-11.0732
-10.8982
-10.7177
-10.5319
-10.3408
-10.1447
-9.94351
-9.73746
-9.52664
-9.31117
-9.09118
-8.86678
-8.63809
-8.40524
-8.16832
-7.92748
-7.68281
-7.43443
-7.18245
-6.92699
-6.66815
-6.40605
-6.14079
-5.87248
-5.60124
-5.32716
-5.05036
-4.77094
-4.48902
-4.2047
-3.91808
-3.62928
-3.3384
-3.04554
-2.75081
-2.45432
-2.15616
-1.85646
-1.55529
-1.25278
-0.949015
-0.6441
-0.338134
-0.0312138
0.276563
0.585101
0.894306
1.20409
1.51435
1.82501
2.13597
2.44715
2.75846
3.06982
3.38115
3.69237
4.0034
4.31417
4.62459
4.9346
5.24412
5.55309
5.86144
6.1691
6.47601
6.78211
7.08734
7.39164
7.69495
7.99722
8.2984
8.59843
8.89728
9.19488
9.4912
9.7862
10.0798
10.372
10.6628
10.9521
11.2398
11.526
11.8107
12.0937
12.375
12.6547
12.9327
13.2089
13.4835
13.7562
14.0272
14.2963
14.5636
14.8291
15.0927
15.3545
15.6143
15.8723
16.1283
16.3824
16.6346
16.8849
17.1331
17.3795
17.6239
17.8663
18.1067
18.3452
18.5817
18.8162
19.0487
19.2793
19.5079
19.7345
19.9591
20.1817
20.4024
20.6211
20.8378
21.0526
21.2654
21.4762
21.6851
21.8921
22.0971
22.3002
22.5013
22.7005
22.8978
23.0932
23.2867
23.4783
23.6681
23.8559
24.0419
24.226
24.4083
24.5887
24.7673
24.9441
25.119
25.2922
25.4635
25.6331
25.8009
25.967
26.1312
26.2938
26.4546
26.6137
26.7711
26.9267
27.0807
27.233
27.3836
27.5326
27.6799
27.8256
27.9697
28.1121
28.2529
28.3922
28.5298
28.6659
28.8004
28.9334
29.0648
29.1946
29.323
29.4499
29.5752
29.6991
29.8214
29.9423
30.0618
30.1798
30.2963
30.4115
30.5252
30.6375
30.7484
30.8579
30.966
31.0728
31.1782
31.2823
31.385
31.4864
31.5865
31.6852
31.7827
31.8789
31.9737
32.0674
32.1597
32.2508
32.3407
32.4293
32.5167
32.6028
32.6878
32.7716
32.8541
32.9355
33.0157
33.0948
33.1727
33.2494
33.325
33.3995
33.4728
33.545
33.6161
33.6862
33.7551
33.8229
33.8897
33.9554
34.02
34.0836
34.1461
34.2076
34.2681
34.3275
34.386
34.4434
34.4998
34.5552
34.6096
34.6631
34.7155
34.767
34.8176
34.8671
34.9157
34.9634
35.0102
35.056
35.1008
35.1448
35.1878
35.23
35.2712
35.3115
35.351
35.3895
35.4272
35.464
35.4999
35.5349
35.5691
35.6024
35.6349
35.6665
35.6973
35.7272
35.7563
35.7845
35.812
35.8386
35.8643
35.8893
35.9134
35.9368
35.9593
35.981
36.0019
36.022
36.0413
36.0599
36.0776
36.0945
36.1107
36.1261
36.1407
36.1545
36.1675
36.1798
36.1912
36.202
36.2119
36.2211
36.2295
36.2371
36.244
36.2501
36.2554
36.26
36.2638
36.2668
36.2691
36.2706
36.2714
-13.4937
-13.4872
-13.4742
-13.4547
-13.4287
-13.3962
-13.3573
-13.3119
-13.26
-13.2017
-13.1369
-13.0658
-12.9883
-12.9044
-12.8142
-12.7177
-12.6149
-12.5059
-12.3907
-12.2693
-12.1418
-12.0082
-11.8686
-11.7231
-11.5716
-11.4143
-11.2513
-11.0826
-10.9083
-10.7284
-10.5432
-10.3527
-10.1569
-9.95609
-9.75029
-9.53963
-9.32424
-9.10425
-8.87978
-8.65096
-8.41791
-8.18076
-7.93963
-7.69465
-7.44594
-7.19361
-6.93778
-6.67858
-6.4161
-6.15047
-5.88179
-5.61018
-5.33575
-5.0586
-4.77884
-4.49658
-4.21193
-3.925
-3.63589
-3.3447
-3.05155
-2.75654
-2.45977
-2.16135
-1.86138
-1.55997
-1.25722
-0.953221
-0.648083
-0.341902
-0.0347768
0.273197
0.581923
0.891308
1.20126
1.51168
1.8225
2.1336
2.44492
2.75636
3.06785
3.37929
3.69061
4.00174
4.31259
4.62309
4.93318
5.24277
5.55179
5.86019
6.1679
6.47484
6.78097
7.08622
7.39054
7.69386
7.99613
8.29731
8.59734
8.89617
9.19375
9.49004
9.785
10.0786
10.3708
10.6615
10.9507
11.2384
11.5245
11.8091
12.092
12.3733
12.6529
12.9308
13.207
13.4814
13.7541
14.0249
14.294
14.5612
14.8266
15.0901
15.3517
15.6114
15.8693
16.1252
16.3792
16.6312
16.8814
17.1295
17.3757
17.62
17.8622
18.1026
18.3409
18.5772
18.8116
19.044
19.2744
19.5029
19.7293
19.9538
20.1763
20.3968
20.6154
20.832
21.0466
21.2592
21.4699
21.6787
21.8855
22.0904
22.2933
22.4943
22.6934
22.8905
23.0858
23.2791
23.4706
23.6602
23.8479
24.0337
24.2177
24.3998
24.5801
24.7585
24.9352
25.11
25.283
25.4542
25.6237
25.7913
25.9572
26.1214
26.2838
26.4445
26.6034
26.7607
26.9162
27.0701
27.2222
27.3727
27.5216
27.6688
27.8143
27.9583
28.1006
28.2413
28.3804
28.5179
28.6539
28.7883
28.9211
29.0524
29.1822
29.3104
29.4372
29.5624
29.6862
29.8084
29.9292
30.0486
30.1665
30.2829
30.3979
30.5116
30.6238
30.7346
30.844
30.952
31.0587
31.164
31.268
31.3706
31.4719
31.5719
31.6706
31.768
31.864
31.9588
32.0524
32.1446
32.2357
32.3254
32.414
32.5013
32.5874
32.6723
32.7559
32.8384
32.9198
32.9999
33.0789
33.1567
33.2334
33.3089
33.3833
33.4566
33.5287
33.5998
33.6697
33.7386
33.8064
33.8731
33.9387
34.0033
34.0668
34.1293
34.1908
34.2512
34.3106
34.3689
34.4263
34.4827
34.538
34.5924
34.6458
34.6982
34.7497
34.8002
34.8497
34.8983
34.9459
34.9926
35.0384
35.0832
35.1271
35.1701
35.2122
35.2534
35.2937
35.3331
35.3716
35.4093
35.446
35.4819
35.5169
35.5511
35.5844
35.6168
35.6484
35.6791
35.709
35.7381
35.7663
35.7937
35.8203
35.8461
35.871
35.8951
35.9184
35.9409
35.9626
35.9835
36.0036
36.0229
36.0414
36.0591
36.0761
36.0922
36.1076
36.1222
36.136
36.149
36.1612
36.1727
36.1834
36.1933
36.2025
36.2109
36.2185
36.2254
36.2315
36.2368
36.2414
36.2452
36.2482
36.2505
36.252
36.2528
-13.4577
-13.4513
-13.4385
-13.4194
-13.3939
-13.362
-13.3237
-13.2791
-13.2282
-13.1709
-13.1073
-13.0374
-12.9612
-12.8787
-12.79
-12.695
-12.5939
-12.4865
-12.373
-12.2533
-12.1276
-11.9958
-11.8579
-11.7141
-11.5644
-11.4088
-11.2474
-11.0803
-10.9075
-10.7291
-10.5451
-10.3558
-10.1611
-9.96128
-9.75631
-9.54637
-9.33157
-9.11204
-8.88792
-8.65934
-8.42643
-8.18934
-7.9482
-7.70313
-7.45429
-7.20179
-6.94576
-6.68633
-6.42362
-6.15774
-5.88882
-5.61697
-5.3423
-5.06492
-4.78494
-4.50248
-4.21763
-3.93051
-3.64122
-3.34987
-3.05657
-2.76142
-2.46452
-2.16599
-1.86592
-1.56442
-1.26158
-0.957521
-0.652327
-0.346102
-0.0389432
0.269052
0.577789
0.887172
1.19711
1.50751
1.81829
2.12935
2.44061
2.75199
3.0634
3.37476
3.68598
3.99701
4.30774
4.61812
4.92807
5.23751
5.54639
5.85463
6.16216
6.46893
6.77488
7.07993
7.38405
7.68716
7.98922
8.29017
8.58997
8.88856
9.1859
9.48195
9.77665
10.07
10.3619
10.6523
10.9413
11.2287
11.5146
11.7988
12.0814
12.3624
12.6417
12.9193
13.1952
13.4693
13.7416
14.0122
14.2809
14.5478
14.8128
15.076
15.3373
15.5967
15.8542
16.1098
16.3635
16.6152
16.865
17.1128
17.3586
17.6025
17.8445
18.0844
18.3224
18.5584
18.7925
19.0245
19.2546
19.4827
19.7088
19.9329
20.1551
20.3753
20.5935
20.8097
21.024
21.2363
21.4467
21.6551
21.8616
22.0661
22.2687
22.4694
22.6681
22.8649
23.0599
23.2529
23.444
23.6333
23.8207
24.0062
24.1899
24.3717
24.5516
24.7298
24.9061
25.0806
25.2533
25.4243
25.5934
25.7608
25.9264
26.0902
26.2523
26.4127
26.5714
26.7284
26.8836
27.0372
27.1891
27.3393
27.4879
27.6348
27.7801
27.9238
28.0658
28.2063
28.3451
28.4824
28.6181
28.7523
28.8849
29.0159
29.1455
29.2735
29.4
29.525
29.6485
29.7705
29.8911
30.0102
30.1279
30.2441
30.3589
30.4723
30.5843
30.6949
30.8041
30.912
31.0184
31.1236
31.2273
31.3298
31.4309
31.5307
31.6291
31.7263
31.8222
31.9169
32.0102
32.1023
32.1931
32.2827
32.3711
32.4583
32.5442
32.6289
32.7124
32.7948
32.8759
32.9559
33.0347
33.1124
33.1889
33.2643
33.3386
33.4117
33.4837
33.5546
33.6245
33.6932
33.7608
33.8274
33.8929
33.9574
34.0208
34.0832
34.1445
34.2048
34.264
34.3223
34.3796
34.4358
34.4911
34.5453
34.5986
34.6509
34.7023
34.7527
34.8021
34.8506
34.8981
34.9447
34.9904
35.0352
35.079
35.1219
35.1639
35.2051
35.2453
35.2846
35.323
35.3606
35.3973
35.4331
35.468
35.5021
35.5353
35.5677
35.5992
35.6299
35.6598
35.6888
35.717
35.7443
35.7708
35.7965
35.8214
35.8455
35.8688
35.8912
35.9129
35.9337
35.9538
35.9731
35.9915
36.0092
36.0261
36.0422
36.0575
36.0721
36.0859
36.0989
36.1111
36.1225
36.1332
36.1431
36.1523
36.1606
36.1683
36.1751
36.1812
36.1865
36.1911
36.1949
36.1979
36.2002
36.2017
36.2025
-13.4407
-13.4344
-13.4217
-13.4028
-13.3775
-13.3459
-13.3081
-13.2639
-13.2135
-13.1568
-13.0938
-13.0247
-12.9493
-12.8676
-12.7798
-12.6859
-12.5857
-12.4795
-12.3671
-12.2487
-12.1242
-11.9937
-11.8573
-11.7149
-11.5666
-11.4124
-11.2525
-11.0867
-10.9153
-10.7383
-10.5557
-10.3676
-10.1741
-9.97526
-9.77124
-9.56212
-9.34801
-9.12904
-8.90534
-8.67704
-8.44429
-8.20723
-7.96601
-7.72077
-7.47165
-7.2188
-6.96237
-6.70248
-6.43928
-6.17288
-5.90342
-5.63102
-5.3558
-5.07787
-4.79735
-4.51435
-4.22897
-3.94133
-3.65154
-3.3597
-3.06592
-2.7703
-2.47295
-2.17397
-1.87347
-1.57155
-1.26831
-0.963856
-0.658282
-0.351691
-0.044179
0.264157
0.573221
0.88292
1.19316
1.50385
1.8149
2.12623
2.43774
2.74936
3.06099
3.37257
3.684
3.99521
4.30612
4.61667
4.92677
5.23636
5.54537
5.85373
6.16137
6.46824
6.77428
7.07941
7.38359
7.68676
7.98887
8.28986
8.58969
8.88831
9.18566
9.48171
9.77641
10.0697
10.3616
10.652
10.9409
11.2283
11.5141
11.7983
12.0809
12.3618
12.641
12.9185
13.1943
13.4683
13.7406
14.011
14.2796
14.5464
14.8113
15.0743
15.3355
15.5948
15.8521
16.1076
16.3611
16.6127
16.8623
17.1099
17.3557
17.5994
17.8412
18.081
18.3188
18.5546
18.7885
19.0204
19.2503
19.4782
19.7041
19.9281
20.15
20.37
20.5881
20.8041
21.0182
21.2303
21.4405
21.6487
21.855
22.0594
22.2618
22.4622
22.6608
22.8574
23.0522
23.245
23.436
23.625
23.8122
23.9975
24.181
24.3626
24.5424
24.7204
24.8965
25.0709
25.2434
25.4141
25.5831
25.7503
25.9157
26.0794
26.2413
26.4015
26.56
26.7168
26.8719
27.0253
27.177
27.3271
27.4755
27.6222
27.7674
27.9109
28.0528
28.1931
28.3318
28.4689
28.6044
28.7384
28.8708
29.0017
29.1311
29.259
29.3853
29.5102
29.6336
29.7554
29.8759
29.9949
30.1124
30.2285
30.3432
30.4564
30.5683
30.6787
30.7878
30.8955
31.0019
31.1069
31.2105
31.3128
31.4138
31.5135
31.6119
31.7089
31.8047
31.8992
31.9925
32.0844
32.1752
32.2647
32.3529
32.44
32.5258
32.6104
32.6938
32.7761
32.8571
32.937
33.0157
33.0933
33.1697
33.245
33.3192
33.3923
33.4642
33.535
33.6048
33.6734
33.741
33.8075
33.8729
33.9373
34.0006
34.0629
34.1242
34.1844
34.2436
34.3018
34.359
34.4151
34.4703
34.5245
34.5778
34.63
34.6813
34.7316
34.781
34.8294
34.8769
34.9235
34.9691
35.0138
35.0576
35.1005
35.1424
35.1835
35.2236
35.2629
35.3013
35.3388
35.3755
35.4112
35.4461
35.4802
35.5134
35.5457
35.5772
35.6078
35.6377
35.6666
35.6948
35.7221
35.7486
35.7743
35.7991
35.8232
35.8464
35.8688
35.8905
35.9113
35.9313
35.9506
35.969
35.9867
36.0036
36.0197
36.035
36.0495
36.0633
36.0762
36.0885
36.0999
36.1106
36.1205
36.1296
36.138
36.1456
36.1524
36.1585
36.1638
36.1683
36.1721
36.1752
36.1775
36.179
36.1797
-13.4027
-13.3964
-13.384
-13.3654
-13.3405
-13.3095
-13.2722
-13.2288
-13.1792
-13.1235
-13.0616
-12.9935
-12.9193
-12.839
-12.7526
-12.66
-12.5614
-12.4568
-12.3461
-12.2294
-12.1067
-11.978
-11.8434
-11.7029
-11.5566
-11.4043
-11.2463
-11.0825
-10.913
-10.7379
-10.5571
-10.3708
-10.179
-9.98185
-9.77935
-9.57164
-9.3588
-9.14096
-8.91823
-8.69075
-8.45866
-8.2221
-7.98122
-7.73617
-7.48712
-7.23421
-6.97762
-6.71748
-6.45395
-6.18717
-5.91729
-5.64443
-5.36874
-5.09033
-4.80933
-4.52584
-4.24
-3.9519
-3.66165
-3.36938
-3.07517
-2.77914
-2.4814
-2.18205
-1.88118
-1.57891
-1.27534
-0.970573
-0.664699
-0.357823
-0.0500413
0.258548
0.567851
0.877773
1.18822
1.49911
1.81034
2.12183
2.43349
2.74524
3.05699
3.36867
3.68019
3.99148
4.30246
4.61306
4.9232
5.23281
5.54183
5.85019
6.15782
6.46466
6.77066
7.07574
7.37987
7.68297
7.98499
8.28589
8.58561
8.88411
9.18134
9.47726
9.77181
10.065
10.3567
10.6469
10.9357
11.2229
11.5085
11.7925
12.0748
12.3555
12.6345
12.9118
13.1874
13.4611
13.7331
14.0033
14.2717
14.5382
14.8028
15.0656
15.3265
15.5855
15.8426
16.0977
16.351
16.6022
16.8516
17.0989
17.3443
17.5878
17.8293
18.0687
18.3063
18.5418
18.7753
19.0069
19.2365
19.4641
19.6897
19.9133
20.135
20.3547
20.5724
20.7881
21.0019
21.2137
21.4236
21.6315
21.8374
22.0415
22.2435
22.4437
22.6419
22.8383
23.0327
23.2252
23.4159
23.6046
23.7915
23.9765
24.1597
24.341
24.5205
24.6981
24.874
25.048
25.2202
25.3907
25.5593
25.7262
25.8914
26.0548
26.2164
26.3764
26.5346
26.6911
26.8459
26.999
27.1505
27.3002
27.4484
27.5949
27.7397
27.883
28.0246
28.1646
28.3031
28.4399
28.5752
28.709
28.8412
28.9718
29.101
29.2286
29.3547
29.4793
29.6025
29.7241
29.8443
29.9631
30.0804
30.1963
30.3107
30.4238
30.5354
30.6457
30.7545
30.862
30.9682
31.073
31.1764
31.2785
31.3793
31.4788
31.577
31.6739
31.7695
31.8638
31.9568
32.0486
32.1392
32.2285
32.3166
32.4035
32.4891
32.5736
32.6569
32.7389
32.8198
32.8996
32.9781
33.0556
33.1318
33.207
33.281
33.3539
33.4257
33.4964
33.566
33.6345
33.702
33.7683
33.8336
33.8979
33.9611
34.0233
34.0844
34.1445
34.2036
34.2617
34.3187
34.3748
34.4299
34.484
34.5371
34.5893
34.6404
34.6907
34.7399
34.7883
34.8357
34.8821
34.9277
34.9723
35.016
35.0588
35.1006
35.1416
35.1817
35.2209
35.2592
35.2967
35.3332
35.3689
35.4038
35.4378
35.4709
35.5032
35.5346
35.5652
35.5949
35.6238
35.6519
35.6792
35.7056
35.7313
35.7561
35.7801
35.8033
35.8256
35.8472
35.868
35.888
35.9072
35.9256
35.9433
35.9601
35.9762
35.9915
36.006
36.0197
36.0326
36.0448
36.0562
36.0669
36.0768
36.0859
36.0942
36.1018
36.1086
36.1147
36.12
36.1246
36.1284
36.1314
36.1337
36.1352
36.1359
-13.3756
-13.3694
-13.3572
-13.3387
-13.3142
-13.2835
-13.2466
-13.2037
-13.1547
-13.0995
-13.0383
-12.971
-12.8977
-12.8183
-12.7328
-12.6413
-12.5439
-12.4404
-12.331
-12.2156
-12.0943
-11.9672
-11.8341
-11.6952
-11.5505
-11.3999
-11.2437
-11.0817
-10.914
-10.7406
-10.5617
-10.3772
-10.1872
-9.99171
-9.79088
-9.58475
-9.3734
-9.15693
-8.93544
-8.70905
-8.47789
-8.24208
-8.00178
-7.75714
-7.50832
-7.25548
-6.99879
-6.73843
-6.47455
-6.20733
-5.93691
-5.66346
-5.38712
-5.10803
-4.82633
-4.54213
-4.25557
-3.96676
-3.67581
-3.38284
-3.08796
-2.79126
-2.49287
-2.19288
-1.8914
-1.58853
-1.28437
-0.979032
-0.672607
-0.365197
-0.0568986
0.252191
0.561977
0.872365
1.18326
1.49458
1.80622
2.11811
2.43016
2.74227
3.05437
3.36638
3.67822
3.98981
4.30107
4.61193
4.92232
5.23218
5.54142
5.84998
6.15781
6.46483
6.77099
7.07623
7.38048
7.68371
7.98584
8.28684
8.58664
8.88522
9.18251
9.47847
9.77306
10.0662
10.358
10.6482
10.937
11.2241
11.5097
11.7937
12.076
12.3566
12.6356
12.9128
13.1883
13.4619
13.7338
14.0039
14.2722
14.5386
14.8031
15.0658
15.3265
15.5854
15.8423
16.0973
16.3504
16.6015
16.8506
17.0978
17.3431
17.5863
17.8276
18.0669
18.3042
18.5396
18.7729
19.0043
19.2337
19.4611
19.6865
19.9099
20.1313
20.3508
20.5683
20.7838
20.9974
21.209
21.4186
21.6263
21.832
22.0358
22.2377
22.4376
22.6357
22.8318
23.026
23.2183
23.4087
23.5972
23.7839
23.9687
24.1516
24.3327
24.512
24.6894
24.865
25.0388
25.2108
25.3811
25.5495
25.7162
25.8811
26.0443
26.2057
26.3654
26.5234
26.6797
26.8343
26.9873
27.1385
27.2881
27.436
27.5823
27.727
27.87
28.0114
28.1513
28.2895
28.4262
28.5613
28.6949
28.8269
28.9573
29.0863
29.2137
29.3396
29.4641
29.587
29.7085
29.8286
29.9471
30.0643
30.18
30.2943
30.4072
30.5186
30.6287
30.7375
30.8448
30.9508
31.0554
31.1587
31.2607
31.3613
31.4607
31.5587
31.6554
31.7509
31.8451
31.938
32.0297
32.1201
32.2093
32.2972
32.384
32.4695
32.5538
32.637
32.7189
32.7997
32.8793
32.9578
33.0351
33.1113
33.1863
33.2602
33.333
33.4047
33.4753
33.5448
33.6132
33.6805
33.7468
33.812
33.8762
33.9393
34.0013
34.0624
34.1224
34.1814
34.2394
34.2964
34.3524
34.4074
34.4614
34.5144
34.5665
34.6176
34.6678
34.717
34.7652
34.8126
34.859
34.9044
34.949
34.9926
35.0353
35.0772
35.1181
35.1581
35.1972
35.2355
35.2729
35.3094
35.3451
35.3798
35.4138
35.4468
35.4791
35.5105
35.541
35.5707
35.5996
35.6276
35.6548
35.6813
35.7068
35.7316
35.7556
35.7787
35.8011
35.8227
35.8434
35.8634
35.8826
35.9009
35.9185
35.9354
35.9514
35.9667
35.9812
35.9949
36.0078
36.02
36.0314
36.042
36.0519
36.061
36.0693
36.0769
36.0837
36.0898
36.095
36.0996
36.1034
36.1064
36.1087
36.1102
36.1109
-13.3331
-13.3271
-13.315
-13.2968
-13.2726
-13.2424
-13.2061
-13.1639
-13.1156
-13.0613
-13.001
-12.9347
-12.8624
-12.7842
-12.7
-12.6098
-12.5138
-12.4118
-12.3039
-12.1902
-12.0706
-11.9451
-11.8139
-11.6768
-11.534
-11.3854
-11.2311
-11.0712
-10.9055
-10.7343
-10.5574
-10.375
-10.1871
-9.99374
-9.79496
-9.59082
-9.3814
-9.16677
-8.94702
-8.72225
-8.49255
-8.25805
-8.01888
-7.77518
-7.52711
-7.27482
-7.01849
-6.7583
-6.49443
-6.22705
-5.95634
-5.68249
-5.40566
-5.126
-4.84368
-4.55883
-4.2716
-3.9821
-3.69047
-3.39682
-3.10126
-2.80391
-2.50487
-2.20425
-1.90216
-1.5987
-1.29398
-0.988087
-0.68113
-0.373207
-0.064416
0.245147
0.555387
0.866209
1.17752
1.48923
1.80126
2.1135
2.42588
2.73832
3.05072
3.36302
3.67512
3.98695
4.29845
4.60952
4.92011
5.23014
5.53954
5.84825
6.1562
6.46333
6.76959
7.07491
7.37923
7.6825
7.98468
8.28569
8.58551
8.88408
9.18135
9.47728
9.77183
10.065
10.3566
10.6468
10.9354
11.2225
11.508
11.7918
12.074
12.3545
12.6333
12.9103
13.1856
13.4591
13.7309
14.0007
14.2688
14.535
14.7993
15.0617
15.3223
15.5809
15.8376
16.0923
16.3451
16.596
16.8449
17.0918
17.3368
17.5798
17.8208
18.0598
18.2968
18.5319
18.765
18.996
19.2251
19.4522
19.6773
19.9004
20.1216
20.3408
20.558
20.7732
20.9864
21.1977
21.407
21.6144
21.8198
22.0233
22.2249
22.4245
22.6222
22.818
23.0119
23.2039
23.394
23.5822
23.7686
23.9531
24.1357
24.3165
24.4954
24.6726
24.8479
25.0214
25.1931
25.363
25.5312
25.6976
25.8622
26.0251
26.1862
26.3457
26.5034
26.6594
26.8137
26.9664
27.1173
27.2666
27.4143
27.5603
27.7047
27.8475
27.9886
28.1282
28.2662
28.4026
28.5375
28.6708
28.8025
28.9327
29.0614
29.1886
29.3143
29.4385
29.5612
29.6825
29.8023
29.9206
30.0375
30.153
30.2671
30.3797
30.491
30.6009
30.7094
30.8165
30.9223
31.0267
31.1298
31.2316
31.332
31.4312
31.529
31.6255
31.7208
31.8148
31.9075
31.999
32.0893
32.1783
32.2661
32.3526
32.438
32.5221
32.6051
32.6869
32.7675
32.847
32.9253
33.0024
33.0784
33.1533
33.2271
33.2997
33.3713
33.4417
33.5111
33.5794
33.6466
33.7127
33.7778
33.8418
33.9048
33.9667
34.0277
34.0876
34.1464
34.2043
34.2612
34.3171
34.3719
34.4259
34.4788
34.5308
34.5818
34.6318
34.6809
34.7291
34.7763
34.8226
34.868
34.9125
34.956
34.9986
35.0404
35.0812
35.1212
35.1602
35.1984
35.2357
35.2722
35.3077
35.3425
35.3763
35.4093
35.4415
35.4728
35.5033
35.5329
35.5618
35.5897
35.6169
35.6433
35.6688
35.6935
35.7174
35.7406
35.7629
35.7844
35.8051
35.825
35.8442
35.8625
35.8801
35.8969
35.9129
35.9281
35.9426
35.9562
35.9692
35.9813
35.9927
36.0033
36.0131
36.0222
36.0305
36.0381
36.0449
36.0509
36.0562
36.0608
36.0645
36.0676
36.0698
36.0713
36.0721
-13.2964
-13.2904
-13.2784
-13.2605
-13.2366
-13.2067
-13.1709
-13.1291
-13.0814
-13.0277
-12.9681
-12.9026
-12.8311
-12.7538
-12.6706
-12.5815
-12.4866
-12.3858
-12.2792
-12.1668
-12.0486
-11.9246
-11.7949
-11.6594
-11.5183
-11.3714
-11.2189
-11.0608
-10.8971
-10.7278
-10.5529
-10.3725
-10.1867
-9.99534
-9.79862
-9.59653
-9.38915
-9.17651
-8.95869
-8.73576
-8.50781
-8.27493
-8.03723
-7.79483
-7.54788
-7.2965
-7.04088
-6.78118
-6.51758
-6.25028
-5.97946
-5.70532
-5.42805
-5.14784
-4.86486
-4.57927
-4.29125
-4.00092
-3.70844
-3.41392
-3.1175
-2.81929
-2.51941
-2.21796
-1.91505
-1.6108
-1.3053
-0.998653
-0.690963
-0.382327
-0.0728444
0.237389
0.548277
0.859727
1.17165
1.48394
1.79653
2.10932
2.42222
2.73516
3.04804
3.36079
3.67334
3.98559
4.29748
4.60894
4.91988
5.23025
5.53998
5.84899
6.15723
6.46463
6.77113
7.07668
7.38122
7.68469
7.98704
8.28822
8.58819
8.88688
9.18427
9.4803
9.77494
10.0681
10.3599
10.6501
10.9388
11.2258
11.5113
11.7952
12.0773
12.3578
12.6366
12.9136
13.1888
13.4622
13.7339
14.0037
14.2716
14.5377
14.8019
15.0642
15.3246
15.5831
15.8396
16.0942
16.3469
16.5976
16.8463
17.093
17.3378
17.5806
17.8214
18.0603
18.2971
18.5319
18.7648
18.9956
19.2245
19.4514
19.6763
19.8992
20.1201
20.339
20.556
20.7709
20.984
21.195
21.4041
21.6112
21.8164
22.0196
22.2209
22.4203
22.6178
22.8133
23.007
23.1987
23.3885
23.5765
23.7626
23.9468
24.1292
24.3098
24.4885
24.6654
24.8404
25.0137
25.1851
25.3548
25.5227
25.6889
25.8532
26.0159
26.1768
26.336
26.4935
26.6492
26.8033
26.9557
27.1064
27.2555
27.4029
27.5487
27.6929
27.8354
27.9764
28.1157
28.2535
28.3897
28.5243
28.6574
28.7889
28.9189
29.0474
29.1744
29.2999
29.4239
29.5464
29.6674
29.787
29.9052
30.0219
30.1372
30.2511
30.3635
30.4746
30.5843
30.6926
30.7996
30.9051
31.0094
31.1123
31.2139
31.3142
31.4131
31.5108
31.6072
31.7023
31.7961
31.8887
31.98
32.0701
32.159
32.2466
32.333
32.4182
32.5023
32.5851
32.6667
32.7472
32.8265
32.9047
32.9817
33.0576
33.1324
33.206
33.2785
33.3499
33.4203
33.4895
33.5577
33.6247
33.6908
33.7557
33.8196
33.8825
33.9444
34.0052
34.065
34.1237
34.1815
34.2383
34.2941
34.3489
34.4027
34.4555
34.5074
34.5583
34.6083
34.6573
34.7054
34.7526
34.7988
34.8441
34.8885
34.9319
34.9745
35.0162
35.0569
35.0968
35.1358
35.1739
35.2112
35.2475
35.2831
35.3177
35.3515
35.3845
35.4166
35.4478
35.4783
35.5079
35.5366
35.5646
35.5917
35.618
35.6435
35.6682
35.6921
35.7151
35.7374
35.7589
35.7796
35.7995
35.8186
35.8369
35.8544
35.8712
35.8872
35.9024
35.9168
35.9305
35.9434
35.9555
35.9668
35.9774
35.9873
35.9963
36.0046
36.0122
36.019
36.025
36.0303
36.0348
36.0386
36.0416
36.0438
36.0454
36.0461
-13.248
-13.2421
-13.2303
-13.2126
-13.1891
-13.1596
-13.1243
-13.0831
-13.036
-12.9831
-12.9244
-12.8597
-12.7893
-12.713
-12.631
-12.5431
-12.4494
-12.35
-12.2448
-12.1339
-12.0172
-11.8949
-11.7668
-11.6331
-11.4938
-11.3488
-11.1982
-11.042
-10.8803
-10.7131
-10.5403
-10.3621
-10.1784
-9.98925
-9.79475
-9.59491
-9.38976
-9.17935
-8.96374
-8.74297
-8.51713
-8.28627
-8.05048
-7.80987
-7.56454
-7.31462
-7.06025
-6.80159
-6.53881
-6.27208