/*--------------------------------*- C++ -*----------------------------------*\
| =========                 |                                                 |
| \\      /  F ield         | OpenFOAM: The Open Source CFD Toolbox           |
|  \\    /   O peration     | Version:  2212                                  |
|   \\  /    A nd           | Website:  www.openfoam.com                      |
|    \\/     M anipulation  |                                                 |
\*---------------------------------------------------------------------------*/
FoamFile
{
    version     2.0;
    format      ascii;
    arch        "LSB;label=32;scalar=64";
    class       volScalarField;
    location    "90";
    object      p_rgh;
}
// * * * * * * * * * * * * * * * * * * * * * * * * * * * * * * * * * * * * * //

dimensions      [1 -1 -2 0 0 0 0];

internalField   nonuniform List<scalar> 
204800
(
-13.5771
-13.5702
-13.5565
-13.536
-13.5086
-13.4743
-13.4332
-13.3853
-13.3305
-13.2691
-13.2009
-13.126
-13.0444
-12.9564
-12.8618
-12.7608
-12.6535
-12.5399
-12.4202
-12.2943
-12.1623
-12.0244
-11.8806
-11.731
-11.5757
-11.4148
-11.2485
-11.0767
-10.8996
-10.7173
-10.5298
-10.3374
-10.14
-9.93782
-9.73092
-9.51939
-9.30335
-9.08289
-8.85811
-8.62911
-8.39599
-8.15886
-7.91782
-7.67298
-7.42443
-7.17228
-6.91664
-6.65761
-6.3953
-6.12982
-5.86127
-5.58977
-5.31541
-5.03831
-4.75857
-4.4763
-4.19161
-3.9046
-3.61539
-3.32407
-3.03076
-2.73557
-2.43858
-2.13992
-1.83968
-1.53797
-1.23489
-0.930541
-0.625024
-0.318437
-0.010879
0.297552
0.606762
0.916655
1.22714
1.53812
1.84951
2.16122
2.47316
2.78525
3.09741
3.40954
3.72158
4.03344
4.34504
4.65631
4.96718
5.27758
5.58743
5.89667
6.20524
6.51306
6.82008
7.12623
7.43146
7.73571
8.03893
8.34106
8.64206
8.94187
9.24044
9.53773
9.8337
10.1283
10.4215
10.7133
11.0035
11.2923
11.5795
11.8651
12.1491
12.4314
12.7121
12.9911
13.2683
13.5438
13.8176
14.0895
14.3596
14.6279
14.8944
15.159
15.4217
15.6825
15.9414
16.1984
16.4535
16.7066
16.9578
17.2071
17.4543
17.6996
17.943
18.1843
18.4237
18.6611
18.8965
19.1299
19.3613
19.5908
19.8182
20.0437
20.2672
20.4887
20.7082
20.9257
21.1413
21.3549
21.5666
21.7762
21.9839
22.1897
22.3935
22.5954
22.7953
22.9934
23.1895
23.3837
23.576
23.7663
23.9549
24.1415
24.3262
24.5091
24.6902
24.8694
25.0467
25.2223
25.396
25.5679
25.738
25.9064
26.073
26.2378
26.4008
26.5621
26.7217
26.8795
27.0356
27.1901
27.3428
27.4938
27.6432
27.7909
27.937
28.0814
28.2242
28.3654
28.505
28.643
28.7794
28.9142
29.0474
29.1791
29.3093
29.4379
29.565
29.6906
29.8147
29.9373
30.0584
30.178
30.2962
30.413
30.5283
30.6421
30.7546
30.8656
30.9753
31.0835
31.1904
31.2959
31.4
31.5028
31.6043
31.7044
31.8032
31.9007
31.9969
32.0919
32.1855
32.2778
32.3689
32.4588
32.5474
32.6347
32.7209
32.8058
32.8895
32.972
33.0533
33.1334
33.2124
33.2902
33.3669
33.4424
33.5167
33.5899
33.662
33.733
33.8029
33.8717
33.9394
34.006
34.0716
34.1361
34.1995
34.2618
34.3232
34.3835
34.4427
34.501
34.5582
34.6144
34.6696
34.7239
34.7771
34.8294
34.8807
34.931
34.9804
35.0288
35.0763
35.1228
35.1684
35.2131
35.2568
35.2997
35.3416
35.3826
35.4227
35.462
35.5003
35.5378
35.5743
35.6101
35.6449
35.6789
35.712
35.7443
35.7757
35.8063
35.836
35.8649
35.893
35.9203
35.9467
35.9723
35.9971
36.0211
36.0443
36.0666
36.0882
36.109
36.1289
36.1481
36.1665
36.1841
36.2009
36.217
36.2323
36.2467
36.2605
36.2734
36.2856
36.297
36.3076
36.3174
36.3265
36.3349
36.3425
36.3493
36.3553
36.3606
36.3652
36.3689
36.372
36.3742
36.3758
36.3765
-13.5232
-13.5166
-13.5031
-13.483
-13.4562
-13.4226
-13.3824
-13.3355
-13.282
-13.2219
-13.1551
-13.0818
-13.0019
-12.9156
-12.8228
-12.7236
-12.6181
-12.5063
-12.3882
-12.264
-12.1337
-11.9973
-11.855
-11.7068
-11.5528
-11.3932
-11.2279
-11.0571
-10.881
-10.6995
-10.5128
-10.3211
-10.1243
-9.9227
-9.7163
-9.50525
-9.28964
-9.06959
-8.8452
-8.61657
-8.38382
-8.14705
-7.90637
-7.66189
-7.4137
-7.16192
-6.90665
-6.648
-6.38607
-6.12098
-5.85283
-5.58173
-5.30778
-5.0311
-4.75179
-4.46995
-4.1857
-3.89914
-3.61038
-3.31952
-3.02667
-2.73194
-2.43543
-2.13725
-1.83749
-1.53627
-1.23369
-0.929834
-0.624818
-0.318738
-0.0116899
0.296228
0.60492
0.914292
1.22425
1.53471
1.84557
2.15675
2.46815
2.77971
3.09132
3.40292
3.71441
4.02572
4.33678
4.64751
4.95783
5.26767
5.57698
5.88567
6.19368
6.50095
6.80741
7.11301
7.41769
7.72139
8.02406
8.32564
8.62609
8.92534
9.22337
9.52011
9.81553
10.1096
10.4022
10.6934
10.9832
11.2714
11.558
11.8431
12.1266
12.4084
12.6885
12.967
13.2437
13.5187
13.7919
14.0633
14.3329
14.6007
14.8667
15.1307
15.393
15.6533
15.9117
16.1682
16.4228
16.6754
16.9261
17.1748
17.4216
17.6665
17.9093
18.1502
18.3891
18.626
18.8609
19.0939
19.3249
19.5539
19.7809
20.0059
20.2289
20.45
20.6691
20.8862
21.1013
21.3145
21.5257
21.735
21.9423
22.1476
22.351
22.5525
22.752
22.9497
23.1454
23.3392
23.5311
23.7211
23.9092
24.0955
24.2799
24.4624
24.6431
24.8219
24.9989
25.1741
25.3475
25.519
25.6888
25.8568
26.023
26.1875
26.3502
26.5112
26.6704
26.8279
26.9837
27.1378
27.2903
27.441
27.5901
27.7375
27.8833
28.0274
28.1699
28.3108
28.4501
28.5878
28.7239
28.8584
28.9914
29.1228
29.2527
29.3811
29.5079
29.6333
29.7571
29.8794
30.0003
30.1197
30.2376
30.3541
30.4692
30.5828
30.6951
30.8059
30.9153
31.0233
31.13
31.2353
31.3392
31.4418
31.543
31.6429
31.7416
31.8389
31.9349
32.0296
32.123
32.2152
32.3061
32.3957
32.4841
32.5713
32.6573
32.742
32.8256
32.9079
32.989
33.069
33.1478
33.2254
33.3019
33.3773
33.4515
33.5246
33.5965
33.6674
33.7371
33.8057
33.8733
33.9398
34.0052
34.0695
34.1328
34.1951
34.2563
34.3164
34.3756
34.4337
34.4908
34.5469
34.602
34.6561
34.7093
34.7614
34.8126
34.8628
34.9121
34.9604
35.0078
35.0542
35.0997
35.1443
35.188
35.2307
35.2725
35.3135
35.3535
35.3927
35.4309
35.4683
35.5048
35.5405
35.5752
35.6091
35.6422
35.6744
35.7058
35.7363
35.766
35.7948
35.8228
35.85
35.8764
35.9019
35.9267
35.9506
35.9738
35.9961
36.0176
36.0383
36.0583
36.0774
36.0958
36.1133
36.1301
36.1461
36.1614
36.1758
36.1895
36.2024
36.2145
36.2259
36.2365
36.2464
36.2555
36.2638
36.2713
36.2781
36.2842
36.2895
36.294
36.2978
36.3008
36.303
36.3046
36.3053
-13.523
-13.5163
-13.5029
-13.4829
-13.4562
-13.4228
-13.3827
-13.336
-13.2827
-13.2228
-13.1563
-13.0833
-13.0038
-12.9178
-12.8253
-12.7265
-12.6213
-12.5099
-12.3922
-12.2683
-12.1383
-12.0023
-11.8603
-11.7125
-11.5588
-11.3994
-11.2343
-11.0638
-10.8877
-10.7064
-10.5198
-10.3281
-10.1313
-9.92966
-9.72321
-9.51207
-9.29636
-9.07617
-8.85164
-8.62285
-8.38994
-8.15299
-7.91213
-7.66745
-7.41908
-7.16712
-6.91166
-6.65283
-6.39073
-6.12547
-5.85715
-5.58588
-5.31177
-5.03493
-4.75546
-4.47347
-4.18908
-3.90238
-3.61348
-3.32249
-3.02952
-2.73467
-2.43804
-2.13975
-1.83988
-1.53856
-1.23587
-0.931925
-0.626819
-0.320652
-0.0135228
0.294472
0.603237
0.912677
1.2227
1.53322
1.84413
2.15536
2.46682
2.77841
3.09006
3.40169
3.71322
4.02456
4.33564
4.64638
4.95672
5.26658
5.57589
5.88458
6.19259
6.49986
6.80632
7.11191
7.41657
7.72026
8.0229
8.32446
8.62488
8.92411
9.2221
9.51881
9.8142
10.1082
10.4008
10.692
10.9817
11.2698
11.5564
11.8414
12.1248
12.4066
12.6867
12.9651
13.2417
13.5167
13.7898
14.0612
14.3307
14.5984
14.8643
15.1283
15.3904
15.6507
15.909
16.1654
16.4199
16.6725
16.9231
17.1718
17.4185
17.6632
17.906
18.1468
18.3856
18.6224
18.8573
19.0902
19.321
19.5499
19.7769
20.0018
20.2248
20.4457
20.6647
20.8817
21.0968
21.3099
21.521
21.7302
21.9374
22.1426
22.346
22.5474
22.7468
22.9444
23.14
23.3337
23.5255
23.7154
23.9035
24.0896
24.2739
24.4564
24.637
24.8157
24.9927
25.1678
25.341
25.5125
25.6822
25.8502
26.0163
26.1807
26.3433
26.5042
26.6634
26.8208
26.9766
27.1306
27.2829
27.4336
27.5826
27.7299
27.8756
28.0197
28.1621
28.303
28.4422
28.5798
28.7159
28.8503
28.9832
29.1146
29.2444
29.3727
29.4995
29.6248
29.7485
29.8708
29.9916
30.111
30.2288
30.3453
30.4603
30.5739
30.686
30.7968
30.9061
31.0141
31.1207
31.226
31.3298
31.4324
31.5336
31.6335
31.732
31.8293
31.9252
32.0199
32.1133
32.2054
32.2962
32.3859
32.4742
32.5614
32.6473
32.732
32.8155
32.8978
32.9789
33.0588
33.1376
33.2152
33.2916
33.3669
33.4411
33.5141
33.586
33.6569
33.7266
33.7952
33.8627
33.9291
33.9945
34.0588
34.1221
34.1843
34.2455
34.3056
34.3647
34.4228
34.4799
34.536
34.5911
34.6451
34.6983
34.7504
34.8016
34.8518
34.901
34.9493
34.9966
35.0431
35.0885
35.1331
35.1767
35.2195
35.2613
35.3022
35.3422
35.3813
35.4196
35.457
35.4934
35.5291
35.5638
35.5977
35.6308
35.663
35.6943
35.7248
35.7545
35.7833
35.8113
35.8385
35.8649
35.8904
35.9151
35.9391
35.9622
35.9845
36.006
36.0267
36.0466
36.0658
36.0841
36.1017
36.1185
36.1345
36.1497
36.1641
36.1778
36.1907
36.2029
36.2142
36.2248
36.2347
36.2437
36.2521
36.2596
36.2664
36.2725
36.2777
36.2823
36.286
36.2891
36.2913
36.2928
36.2936
-13.4836
-13.4771
-13.464
-13.4443
-13.4181
-13.3854
-13.3461
-13.3003
-13.248
-13.1893
-13.124
-13.0523
-12.9742
-12.8897
-12.7988
-12.7016
-12.5981
-12.4882
-12.3722
-12.2499
-12.1216
-11.9871
-11.8466
-11.7002
-11.5479
-11.3898
-11.226
-11.0565
-10.8815
-10.7011
-10.5153
-10.3243
-10.1281
-9.92702
-9.72101
-9.51024
-9.29482
-9.07487
-8.85052
-8.62188
-8.38907
-8.1522
-7.9114
-7.66677
-7.41843
-7.1665
-6.91108
-6.65228
-6.39022
-6.125
-5.85674
-5.58553
-5.31149
-5.03473
-4.75535
-4.47346
-4.18917
-3.90258
-3.61381
-3.32296
-3.03013
-2.73542
-2.43896
-2.14083
-1.84114
-1.54
-1.23751
-0.933761
-0.628863
-0.322913
-0.0160074
0.291756
0.600282
0.909477
1.21925
1.5295
1.84015
2.15111
2.46228
2.77359
3.08495
3.39628
3.7075
4.01853
4.3293
4.63972
4.94973
5.25926
5.56823
5.87658
6.18425
6.49117
6.79727
7.10251
7.40681
7.71013
8.01241
8.31359
8.61364
8.91249
9.2101
9.50642
9.80142
10.0951
10.3873
10.678
10.9673
11.2551
11.5413
11.8259
12.1089
12.3903
12.67
12.9479
13.2242
13.4987
13.7714
14.0424
14.3115
14.5788
14.8443
15.1079
15.3696
15.6295
15.8874
16.1434
16.3975
16.6497
16.8999
17.1481
17.3944
17.6388
17.8811
18.1215
18.36
18.5964
18.8309
19.0634
19.2939
19.5224
19.7489
19.9734
20.196
20.4166
20.6352
20.8519
21.0666
21.2793
21.49
21.6988
21.9057
22.1106
22.3135
22.5146
22.7137
22.9108
23.1061
23.2995
23.491
23.6805
23.8682
24.0541
24.238
24.4201
24.6004
24.7788
24.9554
25.1302
25.3032
25.4743
25.6437
25.8113
25.9772
26.1413
26.3036
26.4642
26.623
26.7802
26.9356
27.0894
27.2414
27.3918
27.5405
27.6876
27.833
27.9768
28.119
28.2595
28.3985
28.5359
28.6716
28.8059
28.9385
29.0696
29.1992
29.3273
29.4538
29.5788
29.7023
29.8244
29.945
30.0641
30.1817
30.2979
30.4127
30.5261
30.638
30.7486
30.8577
30.9655
31.0719
31.1769
31.2806
31.3829
31.4839
31.5836
31.682
31.779
31.8748
31.9693
32.0625
32.1544
32.2451
32.3345
32.4227
32.5097
32.5954
32.68
32.7633
32.8454
32.9264
33.0062
33.0848
33.1622
33.2385
33.3137
33.3877
33.4606
33.5324
33.603
33.6726
33.7411
33.8085
33.8748
33.94
34.0042
34.0674
34.1295
34.1905
34.2505
34.3095
34.3675
34.4245
34.4804
34.5354
34.5894
34.6424
34.6944
34.7455
34.7956
34.8447
34.8929
34.9402
34.9865
35.0319
35.0764
35.1199
35.1626
35.2043
35.2451
35.2851
35.3241
35.3623
35.3996
35.436
35.4715
35.5062
35.5401
35.573
35.6052
35.6364
35.6669
35.6965
35.7253
35.7532
35.7804
35.8067
35.8322
35.8568
35.8807
35.9038
35.9261
35.9475
35.9682
35.9881
36.0072
36.0255
36.043
36.0598
36.0757
36.0909
36.1053
36.119
36.1319
36.144
36.1553
36.1659
36.1757
36.1848
36.1931
36.2006
36.2074
36.2134
36.2187
36.2232
36.227
36.23
36.2323
36.2338
36.2345
-13.4764
-13.4699
-13.4569
-13.4374
-13.4114
-13.3789
-13.34
-13.2946
-13.2427
-13.1844
-13.1197
-13.0486
-12.9711
-12.8872
-12.7971
-12.7006
-12.5978
-12.4888
-12.3736
-12.2523
-12.1248
-11.9912
-11.8517
-11.7062
-11.5548
-11.3975
-11.2345
-11.0658
-10.8916
-10.7118
-10.5266
-10.3361
-10.1404
-9.93961
-9.73385
-9.52324
-9.3079
-9.08795
-8.86353
-8.63475
-8.40174
-8.16464
-7.92355
-7.67862
-7.42995
-7.17766
-6.92188
-6.66272
-6.40028
-6.13469
-5.86606
-5.59449
-5.32009
-5.04297
-4.76325
-4.48103
-4.19641
-3.90951
-3.62043
-3.32927
-3.03615
-2.74116
-2.44442
-2.14603
-1.84608
-1.54469
-1.24196
-0.937979
-0.632859
-0.326694
-0.019583
0.288377
0.597092
0.906466
1.21641
1.52682
1.83763
2.14873
2.46004
2.77148
3.08296
3.3944
3.70573
4.01685
4.32771
4.63821
4.94829
5.25789
5.56692
5.87532
6.18303
6.48998
6.79612
7.10137
7.40569
7.70902
8.0113
8.31249
8.61252
8.91135
9.20894
9.50524
9.80021
10.0938
10.386
10.6767
10.9659
11.2536
11.5398
11.8243
12.1073
12.3885
12.6681
12.946
13.2222
13.4966
13.7693
14.0401
14.3092
14.5764
14.8417
15.1052
15.3668
15.6266
15.8844
16.1403
16.3942
16.6463
16.8963
17.1445
17.3907
17.6349
17.8771
18.1174
18.3557
18.592
18.8263
19.0586
19.289
19.5174
19.7437
19.9681
20.1906
20.411
20.6295
20.846
21.0605
21.2731
21.4837
21.6924
21.8991
22.1038
22.3066
22.5075
22.7065
22.9035
23.0986
23.2919
23.4832
23.6726
23.8602
24.0459
24.2297
24.4116
24.5918
24.7701
24.9465
25.1211
25.294
25.465
25.6343
25.8017
25.9674
26.1314
26.2936
26.454
26.6128
26.7698
26.9251
27.0787
27.2306
27.3809
27.5295
27.6764
27.8217
27.9654
28.1074
28.2479
28.3867
28.524
28.6596
28.7937
28.9263
29.0573
29.1867
29.3147
29.4411
29.566
29.6894
29.8114
29.9318
30.0508
30.1684
30.2845
30.3992
30.5124
30.6243
30.7347
30.8438
30.9515
31.0578
31.1627
31.2663
31.3685
31.4695
31.569
31.6673
31.7643
31.86
31.9544
32.0475
32.1394
32.23
32.3193
32.4074
32.4943
32.58
32.6644
32.7477
32.8298
32.9106
32.9903
33.0689
33.1463
33.2225
33.2976
33.3715
33.4444
33.5161
33.5867
33.6562
33.7246
33.792
33.8582
33.9234
33.9875
34.0506
34.1126
34.1736
34.2336
34.2926
34.3505
34.4074
34.4633
34.5182
34.5722
34.6251
34.6771
34.7281
34.7782
34.8273
34.8755
34.9227
34.969
35.0143
35.0588
35.1023
35.1449
35.1866
35.2274
35.2673
35.3063
35.3444
35.3817
35.4181
35.4536
35.4883
35.5221
35.555
35.5871
35.6184
35.6488
35.6784
35.7071
35.735
35.7622
35.7884
35.8139
35.8386
35.8624
35.8855
35.9077
35.9292
35.9498
35.9697
35.9888
36.0071
36.0246
36.0413
36.0573
36.0725
36.0869
36.1005
36.1134
36.1255
36.1368
36.1474
36.1572
36.1663
36.1746
36.1821
36.1889
36.1949
36.2002
36.2047
36.2084
36.2114
36.2137
36.2152
36.216
-13.4404
-13.434
-13.4213
-13.4021
-13.3766
-13.3447
-13.3065
-13.2619
-13.2109
-13.1537
-13.0901
-13.0202
-12.944
-12.8616
-12.7729
-12.6779
-12.5768
-12.4695
-12.356
-12.2363
-12.1106
-11.9788
-11.8411
-11.6973
-11.5476
-11.392
-11.2307
-11.0636
-10.8908
-10.7124
-10.5285
-10.3392
-10.1446
-9.94482
-9.7399
-9.53
-9.31524
-9.09576
-8.87168
-8.64315
-8.41029
-8.17324
-7.93214
-7.68712
-7.43832
-7.18586
-6.92988
-6.67049
-6.40782
-6.14199
-5.8731
-5.60129
-5.32666
-5.04931
-4.76937
-4.48694
-4.20213
-3.91504
-3.62578
-3.33446
-3.04119
-2.74607
-2.4492
-2.15069
-1.85064
-1.54916
-1.24635
-0.942302
-0.637126
-0.330917
-0.0237735
0.284208
0.592932
0.902305
1.21223
1.52263
1.8334
2.14445
2.45571
2.76708
3.07849
3.38984
3.70107
4.01209
4.32283
4.63321
4.94316
5.25261
5.56149
5.86973
6.17727
6.48404
6.78999
7.09505
7.39917
7.70229
8.00436
8.30532
8.60512
8.90372
9.20107
9.49712
9.79183
10.0852
10.3771
10.6675
10.9565
11.2439
11.5298
11.814
12.0966
12.3776
12.6569
12.9345
13.2104
13.4845
13.7568
14.0274
14.2961
14.5629
14.828
15.0911
15.3524
15.6118
15.8693
16.1248
16.3785
16.6302
16.8799
17.1277
17.3735
17.6174
17.8593
18.0992
18.3372
18.5731
18.8071
19.0391
19.2691
19.4971
19.7232
19.9472
20.1693
20.3894
20.6076
20.8237
21.0379
21.2502
21.4604
21.6687
21.8751
22.0795
22.282
22.4826
22.6812
22.8779
23.0727
23.2656
23.4566
23.6457
23.833
24.0183
24.2018
24.3835
24.5633
24.7413
24.9174
25.0918
25.2643
25.435
25.604
25.7711
25.9365
26.1002
26.2621
26.4223
26.5807
26.7375
26.8925
27.0458
27.1975
27.3475
27.4958
27.6425
27.7875
27.9309
28.0727
28.2129
28.3514
28.4884
28.6239
28.7577
28.89
29.0208
29.15
29.2777
29.4039
29.5285
29.6517
29.7735
29.8937
30.0125
30.1298
30.2457
30.3602
30.4732
30.5848
30.6951
30.8039
30.9114
31.0175
31.1222
31.2256
31.3277
31.4284
31.5278
31.6259
31.7227
31.8182
31.9124
32.0053
32.097
32.1874
32.2766
32.3646
32.4513
32.5368
32.6211
32.7042
32.7861
32.8668
32.9464
33.0248
33.102
33.1781
33.253
33.3268
33.3995
33.4711
33.5416
33.6109
33.6792
33.7464
33.8126
33.8776
33.9416
34.0046
34.0665
34.1274
34.1872
34.2461
34.3039
34.3607
34.4165
34.4713
34.5251
34.578
34.6299
34.6808
34.7308
34.7798
34.8278
34.875
34.9211
34.9664
35.0108
35.0542
35.0967
35.1383
35.179
35.2189
35.2578
35.2959
35.3331
35.3694
35.4048
35.4394
35.4732
35.506
35.5381
35.5693
35.5996
35.6292
35.6579
35.6857
35.7128
35.739
35.7644
35.7891
35.8129
35.8359
35.8581
35.8795
35.9001
35.9199
35.939
35.9572
35.9747
35.9914
36.0073
36.0225
36.0369
36.0505
36.0633
36.0754
36.0867
36.0973
36.1071
36.1161
36.1244
36.1319
36.1387
36.1447
36.1499
36.1544
36.1582
36.1612
36.1634
36.1649
36.1657
-13.4234
-13.4171
-13.4045
-13.3855
-13.3602
-13.3287
-13.2908
-13.2467
-13.1963
-13.1396
-13.0767
-13.0075
-12.9321
-12.8505
-12.7627
-12.6688
-12.5687
-12.4625
-12.3501
-12.2317
-12.1073
-11.9769
-11.8404
-11.6981
-11.5498
-11.3957
-11.2357
-11.0701
-10.8987
-10.7217
-10.5391
-10.351
-10.1576
-9.95881
-9.75483
-9.54575
-9.33169
-9.11277
-8.88911
-8.66086
-8.42815
-8.19114
-7.94996
-7.70476
-7.45569
-7.20289
-6.94649
-6.68665
-6.42348
-6.15713
-5.88771
-5.61535
-5.34017
-5.06228
-4.78179
-4.49882
-4.21348
-3.92588
-3.63612
-3.34431
-3.05055
-2.75496
-2.45764
-2.15868
-1.85821
-1.55631
-1.25309
-0.948653
-0.643097
-0.336523
-0.0290259
0.279296
0.588347
0.898035
1.20827
1.51895
1.82999
2.14131
2.45282
2.76443
3.07606
3.38763
3.69906
4.01027
4.32119
4.63173
4.94184
5.25143
5.56044
5.8688
6.17645
6.48333
6.78937
7.09451
7.3987
7.70187
8.00399
8.30499
8.60482
8.90344
9.2008
9.49685
9.79156
10.0849
10.3768
10.6672
10.9561
11.2435
11.5293
11.8135
12.0961
12.377
12.6562
12.9337
13.2095
13.4835
13.7557
14.0261
14.2947
14.5615
14.8264
15.0894
15.3506
15.6098
15.8672
16.1226
16.3761
16.6276
16.8772
17.1249
17.3705
17.6142
17.856
18.0957
18.3335
18.5693
18.8031
19.0349
19.2647
19.4926
19.7185
19.9423
20.1642
20.3842
20.6021
20.8181
21.0321
21.2441
21.4542
21.6623
21.8685
22.0727
22.275
22.4754
22.6738
22.8704
23.065
23.2577
23.4485
23.6374
23.8245
24.0096
24.193
24.3744
24.5541
24.7318
24.9078
25.082
25.2543
25.4249
25.5936
25.7606
25.9258
26.0893
26.2511
26.411
26.5693
26.7259
26.8807
27.0339
27.1854
27.3352
27.4834
27.6299
27.7747
27.918
28.0596
28.1996
28.338
28.4749
28.6101
28.7438
28.876
29.0066
29.1356
29.2632
29.3892
29.5137
29.6368
29.7584
29.8785
29.9971
30.1143
30.23
30.3444
30.4573
30.5688
30.6789
30.7876
30.8949
31.0009
31.1055
31.2088
31.3107
31.4113
31.5106
31.6086
31.7053
31.8006
31.8947
31.9876
32.0791
32.1695
32.2585
32.3464
32.433
32.5184
32.6026
32.6856
32.7674
32.848
32.9275
33.0058
33.0829
33.1589
33.2337
33.3075
33.3801
33.4516
33.522
33.5912
33.6595
33.7266
33.7926
33.8576
33.9215
33.9844
34.0463
34.1071
34.1668
34.2256
34.2833
34.3401
34.3958
34.4506
34.5044
34.5571
34.609
34.6598
34.7097
34.7587
34.8067
34.8538
34.8999
34.9451
34.9894
35.0328
35.0753
35.1168
35.1575
35.1973
35.2362
35.2742
35.3113
35.3476
35.383
35.4176
35.4513
35.4841
35.5161
35.5473
35.5776
35.6071
35.6358
35.6636
35.6906
35.7168
35.7422
35.7668
35.7906
35.8136
35.8357
35.8571
35.8777
35.8975
35.9166
35.9348
35.9523
35.9689
35.9848
36
36.0143
36.0279
36.0408
36.0528
36.0641
36.0747
36.0845
36.0935
36.1017
36.1093
36.116
36.122
36.1273
36.1318
36.1355
36.1385
36.1408
36.1423
36.143
-13.3854
-13.3792
-13.3668
-13.3481
-13.3233
-13.2923
-13.2551
-13.2116
-13.1621
-13.1063
-13.0444
-12.9764
-12.9022
-12.8219
-12.7355
-12.643
-12.5444
-12.4398
-12.3291
-12.2125
-12.0898
-11.9612
-11.8266
-11.6861
-11.5398
-11.3876
-11.2296
-11.0659
-10.8964
-10.7213
-10.5406
-10.3543
-10.1626
-9.96543
-9.76297
-9.5553
-9.3425
-9.1247
-8.90202
-8.67459
-8.44254
-8.20602
-7.96518
-7.72018
-7.47117
-7.21831
-6.96175
-6.70166
-6.43817
-6.17143
-5.90159
-5.62878
-5.35312
-5.07475
-4.79378
-4.51034
-4.22452
-3.93646
-3.64625
-3.354
-3.05982
-2.76382
-2.46611
-2.16678
-1.86594
-1.56369
-1.26014
-0.955391
-0.649536
-0.342677
-0.0349112
0.273664
0.582954
0.892864
1.2033
1.51418
1.8254
2.13688
2.44854
2.76029
3.07204
3.38371
3.69523
4.00652
4.3175
4.62809
4.93823
5.24785
5.55687
5.86523
6.17287
6.47972
6.78572
7.09081
7.39494
7.69804
8.00007
8.30098
8.60071
8.89921
9.19645
9.49237
9.78693
10.0801
10.3718
10.6621
10.9508
11.238
11.5236
11.8076
12.09
12.3707
12.6497
12.927
13.2025
13.4763
13.7483
14.0184
14.2868
14.5533
14.8179
15.0807
15.3416
15.6005
15.8576
16.1127
16.3659
16.6172
16.8665
17.1138
17.3592
17.6026
17.844
18.0835
18.3209
18.5564
18.7899
19.0214
19.2509
19.4785
19.704
19.9276
20.1492
20.3688
20.5864
20.802
21.0157
21.2275
21.4372
21.645
21.8509
22.0548
22.2568
22.4568
22.655
22.8512
23.0455
23.2379
23.4284
23.617
23.8037
23.9886
24.1716
24.3528
24.5321
24.7096
24.8852
25.0591
25.2311
25.4014
25.5699
25.7366
25.9015
26.0647
26.2261
26.3858
26.5438
26.7001
26.8547
27.0076
27.1588
27.3083
27.4562
27.6025
27.7471
27.89
28.0314
28.1712
28.3093
28.4459
28.5809
28.7144
28.8463
28.9766
29.1054
29.2328
29.3586
29.4829
29.6057
29.727
29.8469
29.9653
30.0823
30.1978
30.3119
30.4246
30.5359
30.6458
30.7543
30.8614
30.9672
31.0716
31.1747
31.2764
31.3768
31.4759
31.5737
31.6702
31.7654
31.8593
31.952
32.0433
32.1335
32.2224
32.3101
32.3965
32.4817
32.5658
32.6486
32.7303
32.8107
32.89
32.9682
33.0452
33.121
33.1957
33.2693
33.3418
33.4131
33.4834
33.5525
33.6206
33.6876
33.7535
33.8184
33.8822
33.9449
34.0066
34.0673
34.127
34.1856
34.2433
34.2999
34.3555
34.4102
34.4638
34.5165
34.5682
34.619
34.6688
34.7177
34.7656
34.8125
34.8586
34.9037
34.9479
34.9912
35.0336
35.0751
35.1157
35.1554
35.1942
35.2322
35.2692
35.3054
35.3408
35.3753
35.4089
35.4417
35.4736
35.5047
35.535
35.5644
35.593
35.6208
35.6478
35.6739
35.6993
35.7238
35.7475
35.7705
35.7926
35.8139
35.8345
35.8543
35.8733
35.8915
35.9089
35.9255
35.9414
35.9565
35.9708
35.9844
35.9972
36.0093
36.0205
36.0311
36.0408
36.0498
36.0581
36.0656
36.0723
36.0783
36.0836
36.088
36.0918
36.0948
36.097
36.0985
36.0993
-13.3584
-13.3522
-13.34
-13.3215
-13.297
-13.2663
-13.2295
-13.1866
-13.1375
-13.0824
-13.0212
-12.9539
-12.8806
-12.8012
-12.7158
-12.6243
-12.5269
-12.4235
-12.3141
-12.1987
-12.0775
-11.9503
-11.8173
-11.6784
-11.5337
-11.3832
-11.227
-11.065
-10.8974
-10.7241
-10.5452
-10.3607
-10.1707
-9.97531
-9.77452
-9.56843
-9.35712
-9.14069
-8.91925
-8.6929
-8.46178
-8.22602
-7.98576
-7.74116
-7.49238
-7.23959
-6.98294
-6.72262
-6.45879
-6.1916
-5.92123
-5.64782
-5.37152
-5.09246
-4.8108
-4.52664
-4.24011
-3.95133
-3.66042
-3.36748
-3.07262
-2.77596
-2.47759
-2.17763
-1.87617
-1.57332
-1.26919
-0.963869
-0.657463
-0.35007
-0.041788
0.267287
0.577059
0.887435
1.19832
1.50963
1.82127
2.13315
2.44518
2.75729
3.06939
3.3814
3.69323
4.00482
4.31608
4.62694
4.93734
5.24719
5.55643
5.865
6.17283
6.47986
6.78602
7.09126
7.39553
7.69875
8.00089
8.3019
8.60171
8.90029
9.19758
9.49355
9.78815
10.0813
10.3731
10.6633
10.9521
11.2392
11.5248
11.8088
12.0911
12.3718
12.6507
12.9279
13.2034
13.477
13.7489
14.019
14.2872
14.5536
14.8181
15.0808
15.3415
15.6003
15.8573
16.1122
16.3653
16.6164
16.8655
17.1127
17.3579
17.6011
17.8423
18.0816
18.3189
18.5541
18.7874
19.0187
19.2481
19.4754
19.7007
19.9241
20.1455
20.3649
20.5823
20.7977
21.0112
21.2227
21.4322
21.6398
21.8455
22.0492
22.2509
22.4507
22.6486
22.8446
23.0387
23.2309
23.4211
23.6095
23.796
23.9807
24.1635
24.3444
24.5235
24.7008
24.8762
25.0499
25.2217
25.3917
25.56
25.7265
25.8912
26.0542
26.2154
26.3749
26.5327
26.6887
26.8431
26.9958
27.1468
27.2961
27.4438
27.5899
27.7343
27.877
28.0182
28.1578
28.2957
28.4321
28.5669
28.7002
28.8319
28.9621
29.0907
29.2179
29.3435
29.4676
29.5902
29.7114
29.8311
29.9493
30.0661
30.1815
30.2955
30.408
30.5191
30.6288
30.7372
30.8442
30.9498
31.054
31.157
31.2585
31.3588
31.4577
31.5554
31.6517
31.7468
31.8406
31.9331
32.0244
32.1144
32.2031
32.2907
32.377
32.4621
32.546
32.6287
32.7102
32.7906
32.8698
32.9478
33.0247
33.1004
33.175
33.2485
33.3208
33.3921
33.4622
33.5313
33.5993
33.6661
33.732
33.7967
33.8604
33.9231
33.9847
34.0453
34.1049
34.1635
34.221
34.2776
34.3331
34.3877
34.4413
34.4939
34.5455
34.5962
34.6459
34.6947
34.7426
34.7895
34.8354
34.8805
34.9246
34.9679
35.0102
35.0516
35.0922
35.1318
35.1706
35.2085
35.2455
35.2816
35.3169
35.3514
35.3849
35.4177
35.4496
35.4806
35.5108
35.5402
35.5688
35.5965
35.6235
35.6496
35.6749
35.6994
35.7231
35.746
35.7681
35.7894
35.8099
35.8297
35.8486
35.8668
35.8842
35.9008
35.9167
35.9318
35.9461
35.9596
35.9724
35.9845
35.9957
36.0062
36.016
36.025
36.0332
36.0407
36.0474
36.0534
36.0586
36.0631
36.0669
36.0699
36.0721
36.0736
36.0743
-13.316
-13.3099
-13.2978
-13.2797
-13.2555
-13.2253
-13.189
-13.1467
-13.0985
-13.0442
-12.9839
-12.9176
-12.8454
-12.7672
-12.683
-12.5929
-12.4968
-12.3949
-12.287
-12.1733
-12.0537
-11.9283
-11.7971
-11.6601
-11.5173
-11.3688
-11.2145
-11.0546
-10.889
-10.7178
-10.541
-10.3586
-10.1707
-9.97738
-9.77863
-9.57453
-9.36515
-9.15056
-8.93085
-8.70612
-8.47646
-8.242
-8.00288
-7.75922
-7.51119
-7.25894
-7.00266
-6.74251
-6.47867
-6.21134
-5.94067
-5.66686
-5.39006
-5.11045
-4.82816
-4.54335
-4.25615
-3.96669
-3.67509
-3.38147
-3.08594
-2.78862
-2.48961
-2.18902
-1.88696
-1.58352
-1.27882
-0.972945
-0.666008
-0.358103
-0.0493283
0.260219
0.570445
0.881255
1.19256
1.50426
1.81627
2.12851
2.44089
2.75331
3.06571
3.378
3.6901
4.00194
4.31343
4.6245
4.93509
5.24512
5.55452
5.86324
6.17119
6.47833
6.78459
7.08991
7.39424
7.69752
7.9997
8.30072
8.60054
8.89911
9.19639
9.49232
9.78688
10.08
10.3717
10.6619
10.9505
11.2376
11.523
11.8069
12.0891
12.3696
12.6484
12.9254
13.2007
13.4742
13.7459
14.0158
14.2838
14.55
14.8143
15.0767
15.3372
15.5958
15.8525
16.1072
16.36
16.6108
16.8597
17.1066
17.3515
17.5945
17.8355
18.0744
18.3114
18.5464
18.7794
19.0105
19.2395
19.4665
19.6916
19.9146
20.1357
20.3548
20.5719
20.787
21.0002
21.2114
21.4206
21.6279
21.8332
22.0366
22.238
22.4376
22.6352
22.8308
23.0246
23.2164
23.4064
23.5945
23.7807
23.965
24.1475
24.3282
24.507
24.6839
24.8591
25.0324
25.2039
25.3737
25.5416
25.7078
25.8723
26.0349
26.1959
26.3551
26.5126
26.6684
26.8225
26.9749
27.1256
27.2747
27.4221
27.5678
27.712
27.8545
27.9954
28.1347
28.2724
28.4085
28.5431
28.6761
28.8075
28.9375
29.0659
29.1927
29.3181
29.442
29.5644
29.6853
29.8048
29.9228
30.0394
30.1545
30.2682
30.3805
30.4915
30.601
30.7091
30.8159
30.9213
31.0253
31.128
31.2294
31.3295
31.4282
31.5257
31.6218
31.7167
31.8103
31.9026
31.9937
32.0835
32.1721
32.2595
32.3456
32.4306
32.5143
32.5969
32.6782
32.7584
32.8374
32.9153
32.992
33.0676
33.1421
33.2154
33.2876
33.3587
33.4287
33.4976
33.5654
33.6322
33.6979
33.7625
33.8261
33.8886
33.9501
34.0106
34.0701
34.1285
34.1859
34.2424
34.2978
34.3523
34.4058
34.4583
34.5098
34.5604
34.61
34.6587
34.7064
34.7533
34.7991
34.8441
34.8882
34.9313
34.9736
35.0149
35.0554
35.0949
35.1336
35.1714
35.2084
35.2444
35.2797
35.314
35.3475
35.3802
35.412
35.443
35.4732
35.5025
35.531
35.5587
35.5856
35.6117
35.6369
35.6614
35.685
35.7079
35.7299
35.7512
35.7717
35.7914
35.8103
35.8285
35.8458
35.8624
35.8782
35.8933
35.9076
35.9211
35.9339
35.9459
35.9571
35.9676
35.9773
35.9863
35.9945
36.002
36.0087
36.0147
36.0199
36.0244
36.0281
36.0311
36.0333
36.0348
36.0356
-13.2793
-13.2733
-13.2613
-13.2434
-13.2195
-13.1896
-13.1538
-13.112
-13.0643
-13.0106
-12.9511
-12.8856
-12.8141
-12.7368
-12.6537
-12.5646
-12.4697
-12.3689
-12.2623
-12.1499
-12.0318
-11.9078
-11.7781
-11.6427
-11.5016
-11.3548
-11.2023
-11.0443
-10.8806
-10.7113
-10.5365
-10.3561
-10.1703
-9.97901
-9.78232
-9.58028
-9.37293
-9.16033
-8.94255
-8.71966
-8.49175
-8.25891
-8.02125
-7.77889
-7.53197
-7.28064
-7.02506
-6.7654
-6.50184
-6.23458
-5.9638
-5.6897
-5.41247
-5.1323
-4.84935
-4.56381
-4.27581
-3.98552
-3.69307
-3.39859
-3.1022
-2.80402
-2.50416
-2.20274
-1.89987
-1.59563
-1.29016
-0.983531
-0.675861
-0.367244
-0.0577786
0.252439
0.563312
0.874749
1.18666
1.49894
1.81152
2.1243
2.4372
2.75012
3.063
3.37575
3.68829
4.00054
4.31243
4.62389
4.93483
5.24521
5.55493
5.86395
6.17219
6.47959
6.7861
7.09165
7.39619
7.69967
8.00202
8.30321
8.60318
8.90188
9.19928
9.49531
9.78996
10.0832
10.3749
10.6651
10.9538
11.2409
11.5264
11.8102
12.0924
12.3728
12.6516
12.9286
13.2038
13.4772
13.7489
14.0186
14.2866
14.5526
14.8168
15.0791
15.3395
15.598
15.8545
16.1091
16.3617
16.6124
16.8611
17.1078
17.3525
17.5953
17.8361
18.0748
18.3116
18.5464
18.7792
19.01
19.2388
19.4656
19.6905
19.9133
20.1341
20.353
20.5699
20.7847
20.9977
21.2086
21.4176
21.6246
21.8297
22.0329
22.2341
22.4333
22.6307
22.8261
23.0196
23.2112
23.4009
23.5887
23.7747
23.9588
24.141
24.3214
24.4999
24.6767
24.8515
25.0246
25.1959
25.3654
25.5331
25.6991
25.8632
26.0257
26.1864
26.3453
26.5026
26.6581
26.812
26.9642
27.1147
27.2635
27.4107
27.5562
27.7001
27.8424
27.9831
28.1221
28.2596
28.3955
28.5299
28.6627
28.7939
28.9236
29.0518
29.1785
29.3036
29.4273
29.5495
29.6702
29.7895
29.9073
30.0237
30.1386
30.2522
30.3643
30.475
30.5843
30.6923
30.7989
30.9041
31.008
31.1105
31.2117
31.3116
31.4102
31.5075
31.6035
31.6982
31.7916
31.8838
31.9747
32.0644
32.1528
32.24
32.326
32.4108
32.4944
32.5768
32.6581
32.7381
32.817
32.8947
32.9713
33.0468
33.1211
33.1943
33.2664
33.3373
33.4072
33.476
33.5437
33.6104
33.676
33.7405
33.804
33.8664
33.9278
33.9882
34.0475
34.1058
34.1632
34.2195
34.2749
34.3292
34.3826
34.435
34.4865
34.537
34.5865
34.6351
34.6828
34.7295
34.7753
34.8202
34.8642
34.9073
34.9494
34.9907
35.0311
35.0706
35.1092
35.147
35.1838
35.2199
35.255
35.2893
35.3228
35.3554
35.3872
35.4181
35.4482
35.4775
35.506
35.5336
35.5604
35.5865
35.6117
35.6361
35.6597
35.6825
35.7045
35.7258
35.7462
35.7659
35.7848
35.8029
35.8202
35.8368
35.8526
35.8676
35.8819
35.8954
35.9081
35.9201
35.9313
35.9418
35.9515
35.9605
35.9687
35.9761
35.9828
35.9888
35.994
35.9985
36.0022
36.0052
36.0074
36.0089
36.0096
-13.2309
-13.225
-13.2133
-13.1956
-13.172
-13.1426
-13.1073
-13.0661
-13.019
-12.9661
-12.9074
-12.8428
-12.7723
-12.6961
-12.6141
-12.5262
-12.4326
-12.3332
-12.228
-12.1171
-12.0005
-11.8782
-11.7501
-11.6165
-11.4771
-11.3322
-11.1816
-11.0255
-10.8638
-10.6966
-10.5239
-10.3457
-10.162
-9.97295
-9.77849
-9.57869
-9.37358
-9.16321
-8.94763
-8.72691
-8.5011
-8.27028
-8.03453
-7.79396
-7.54867
-7.29879
-7.04446
-6.78583
-6.52309