/*--------------------------------*- C++ -*----------------------------------*\
| =========                 |                                                 |
| \\      /  F ield         | OpenFOAM: The Open Source CFD Toolbox           |
|  \\    /   O peration     | Version:  2212                                  |
|   \\  /    A nd           | Website:  www.openfoam.com                      |
|    \\/     M anipulation  |                                                 |
\*---------------------------------------------------------------------------*/
FoamFile
{
    version     2.0;
    format      ascii;
    arch        "LSB;label=32;scalar=64";
    class       volScalarField;
    location    "460";
    object      p_rgh_0;
}
// * * * * * * * * * * * * * * * * * * * * * * * * * * * * * * * * * * * * * //

dimensions      [1 -1 -2 0 0 0 0];

internalField   nonuniform List<scalar> 
204800
(
35.7638
35.7508
35.7258
35.6889
35.6401
35.58
35.5087
35.427
35.3354
35.2346
35.1252
35.0077
34.8826
34.7505
34.6118
34.4669
34.3162
34.1601
33.9988
33.8328
33.6623
33.4877
33.3092
33.1271
32.9416
32.7531
32.5617
32.3678
32.1715
31.9731
31.7728
31.5708
31.3674
31.1627
30.9571
30.7506
30.5434
30.3359
30.1281
29.9202
29.7125
29.505
29.298
29.0917
28.8861
28.6815
28.4779
28.2756
28.0746
27.8752
27.6774
27.4813
27.2872
27.095
26.905
26.7171
26.5316
26.3485
26.1679
25.99
25.8147
25.6421
25.4724
25.3057
25.1419
24.9811
24.8235
24.669
24.5178
24.3698
24.2251
24.0838
23.9458
23.8113
23.6802
23.5526
23.4285
23.3079
23.1908
23.0773
22.9673
22.8609
22.758
22.6587
22.563
22.4709
22.3823
22.2972
22.2157
22.1377
22.0632
21.9922
21.9246
21.8605
21.7998
21.7425
21.6885
21.6379
21.5906
21.5465
21.5057
21.4681
21.4336
21.4023
21.374
21.3488
21.3265
21.3073
21.2909
21.2774
21.2668
21.2589
21.2537
21.2513
21.2514
21.2542
21.2595
21.2673
21.2775
21.2902
21.3051
21.3224
21.342
21.3637
21.3876
21.4135
21.4416
21.4716
21.5036
21.5375
21.5732
21.6108
21.6501
21.6911
21.7338
21.7781
21.824
21.8714
21.9203
21.9706
22.0223
22.0754
22.1297
22.1853
22.2421
22.3001
22.3593
22.4195
22.4807
22.543
22.6062
22.6703
22.7354
22.8013
22.868
22.9355
23.0037
23.0726
23.1422
23.2125
23.2833
23.3547
23.4267
23.4991
23.5721
23.6454
23.7192
23.7934
23.8679
23.9428
24.0179
24.0934
24.169
24.2449
24.321
24.3973
24.4737
24.5502
24.6268
24.7035
24.7802
24.857
24.9338
25.0106
25.0873
25.164
25.2406
25.3172
25.3936
25.4699
25.546
25.622
25.6979
25.7735
25.8489
25.9241
25.9991
26.0738
26.1482
26.2223
26.2962
26.3697
26.443
26.5159
26.5884
26.6606
26.7324
26.8039
26.8749
26.9456
27.0158
27.0856
27.155
27.224
27.2925
27.3605
27.4281
27.4952
27.5618
27.6279
27.6935
27.7586
27.8232
27.8873
27.9509
28.0139
28.0764
28.1383
28.1997
28.2606
28.3208
28.3805
28.4397
28.4982
28.5562
28.6135
28.6703
28.7265
28.7821
28.8371
28.8915
28.9452
28.9984
29.0509
29.1028
29.1541
29.2047
29.2547
29.3041
29.3528
29.4009
29.4484
29.4952
29.5413
29.5868
29.6317
29.6759
29.7194
29.7623
29.8045
29.846
29.8869
29.9271
29.9666
30.0055
30.0437
30.0812
30.118
30.1542
30.1897
30.2245
30.2586
30.2921
30.3248
30.3569
30.3883
30.419
30.449
30.4783
30.507
30.5349
30.5622
30.5888
30.6146
30.6398
30.6643
30.6881
30.7112
30.7336
30.7553
30.7763
30.7966
30.8163
30.8352
30.8534
30.8709
30.8878
30.9039
30.9193
30.9341
30.9481
30.9614
30.9741
30.986
30.9972
31.0077
31.0176
31.0267
31.0351
31.0429
31.0499
31.0562
31.0618
31.0667
31.0709
31.0745
31.0773
31.0794
31.0808
31.0815
35.7312
35.7171
35.6893
35.6485
35.5954
35.5307
35.4552
35.3697
35.2749
35.1715
35.06
34.941
34.8148
34.682
34.5428
34.3976
34.2467
34.0906
33.9294
33.7635
33.5932
33.4188
33.2405
33.0586
32.8735
32.6852
32.4942
32.3005
32.1046
31.9065
31.7065
31.5049
31.3019
31.0976
30.8923
30.6862
30.4794
30.2722
30.0648
29.8573
29.65
29.4429
29.2363
29.0303
28.8252
28.6209
28.4177
28.2158
28.0152
27.8162
27.6187
27.4231
27.2293
27.0375
26.8478
26.6603
26.4752
26.2924
26.1122
25.9346
25.7596
25.5875
25.4181
25.2517
25.0882
24.9278
24.7705
24.6163
24.4654
24.3177
24.1733
24.0323
23.8946
23.7603
23.6295
23.5022
23.3783
23.258
23.1411
23.0279
22.9181
22.8119
22.7093
22.6103
22.5148
22.4228
22.3344
22.2495
22.1682
22.0904
22.016
21.9452
21.8778
21.8138
21.7533
21.6961
21.6423
21.5918
21.5446
21.5007
21.46
21.4225
21.3881
21.3568
21.3287
21.3035
21.2814
21.2622
21.2459
21.2325
21.2218
21.214
21.2089
21.2065
21.2067
21.2095
21.2148
21.2226
21.2329
21.2455
21.2605
21.2778
21.2973
21.319
21.3429
21.3689
21.3969
21.4269
21.4589
21.4927
21.5284
21.566
21.6052
21.6462
21.6888
21.7331
21.7789
21.8263
21.8751
21.9253
21.977
22.03
22.0842
22.1398
22.1965
22.2544
22.3134
22.3735
22.4347
22.4969
22.56
22.6241
22.689
22.7548
22.8214
22.8888
22.9569
23.0257
23.0952
23.1653
23.2361
23.3074
23.3792
23.4515
23.5244
23.5976
23.6713
23.7453
23.8197
23.8945
23.9695
24.0448
24.1203
24.1961
24.2721
24.3482
24.4245
24.5008
24.5773
24.6539
24.7305
24.8072
24.8838
24.9605
25.0371
25.1136
25.1901
25.2665
25.3428
25.419
25.495
25.5709
25.6465
25.722
25.7973
25.8724
25.9472
26.0218
26.0961
26.1701
26.2438
26.3173
26.3903
26.4631
26.5355
26.6076
26.6793
26.7506
26.8215
26.892
26.9622
27.0319
27.1011
27.1699
27.2383
27.3062
27.3737
27.4406
27.5071
27.5731
27.6386
27.7036
27.7681
27.8321
27.8955
27.9584
28.0208
28.0826
28.1439
28.2046
28.2648
28.3244
28.3834
28.4418
28.4997
28.557
28.6137
28.6697
28.7252
28.7801
28.8344
28.888
28.9411
28.9935
29.0453
29.0965
29.1471
29.197
29.2462
29.2949
29.3429
29.3903
29.437
29.483
29.5284
29.5732
29.6173
29.6608
29.7036
29.7457
29.7871
29.8279
29.8681
29.9075
29.9463
29.9844
30.0219
30.0587
30.0948
30.1302
30.1649
30.199
30.2324
30.2651
30.2971
30.3284
30.359
30.389
30.4183
30.4469
30.4748
30.502
30.5285
30.5543
30.5795
30.6039
30.6276
30.6507
30.6731
30.6947
30.7157
30.736
30.7556
30.7745
30.7927
30.8101
30.8269
30.843
30.8584
30.8731
30.8872
30.9005
30.9131
30.925
30.9362
30.9467
30.9565
30.9656
30.974
30.9817
30.9887
30.995
31.0007
31.0056
31.0098
31.0133
31.0161
31.0182
31.0196
31.0203
35.7124
35.6985
35.671
35.6305
35.5775
35.5131
35.4377
35.3524
35.2577
35.1543
35.0428
34.9237
34.7974
34.6644
34.525
34.3797
34.2287
34.0724
33.9111
33.7451
33.5747
33.4002
33.2218
33.0399
32.8546
32.6663
32.4752
32.2816
32.0856
31.8875
31.6875
31.4859
31.2828
31.0785
30.8732
30.6671
30.4604
30.2532
30.0458
29.8384
29.631
29.424
29.2174
29.0115
28.8063
28.6021
28.399
28.1971
27.9966
27.7976
27.6002
27.4046
27.2109
27.0191
26.8295
26.6421
26.457
26.2744
26.0942
25.9166
25.7418
25.5696
25.4004
25.234
25.0706
24.9103
24.753
24.599
24.4481
24.3005
24.1562
24.0152
23.8776
23.7435
23.6127
23.4855
23.3617
23.2414
23.1247
23.0115
22.9018
22.7957
22.6932
22.5942
22.4988
22.407
22.3186
22.2339
22.1526
22.0749
22.0006
21.9299
21.8625
21.7987
21.7382
21.6811
21.6274
21.577
21.5299
21.486
21.4454
21.408
21.3737
21.3425
21.3144
21.2893
21.2673
21.2482
21.2319
21.2186
21.2081
21.2003
21.1953
21.1929
21.1932
21.1961
21.2015
21.2094
21.2197
21.2324
21.2475
21.2648
21.2844
21.3062
21.3301
21.3562
21.3842
21.4143
21.4463
21.4802
21.516
21.5536
21.5929
21.634
21.6767
21.721
21.7668
21.8142
21.8631
21.9134
21.9651
22.0181
22.0724
22.128
22.1848
22.2427
22.3018
22.362
22.4232
22.4854
22.5485
22.6126
22.6776
22.7434
22.8101
22.8775
22.9456
23.0145
23.084
23.1542
23.2249
23.2963
23.3681
23.4405
23.5133
23.5866
23.6603
23.7344
23.8088
23.8835
23.9586
24.0339
24.1095
24.1852
24.2612
24.3374
24.4136
24.49
24.5665
24.6431
24.7198
24.7964
24.8731
24.9497
25.0263
25.1029
25.1794
25.2558
25.3321
25.4083
25.4843
25.5602
25.6359
25.7114
25.7867
25.8617
25.9366
26.0111
26.0854
26.1595
26.2332
26.3066
26.3797
26.4525
26.5249
26.597
26.6687
26.74
26.8109
26.8814
26.9515
27.0212
27.0905
27.1593
27.2277
27.2956
27.363
27.43
27.4965
27.5625
27.628
27.693
27.7574
27.8214
27.8848
27.9477
28.0101
28.0719
28.1332
28.1939
28.2541
28.3136
28.3727
28.4311
28.4889
28.5462
28.6029
28.659
28.7144
28.7693
28.8236
28.8772
28.9303
28.9827
29.0345
29.0857
29.1362
29.1861
29.2354
29.284
29.332
29.3794
29.4261
29.4721
29.5175
29.5623
29.6064
29.6498
29.6926
29.7347
29.7762
29.817
29.8571
29.8966
29.9353
29.9735
30.0109
30.0477
30.0838
30.1192
30.1539
30.188
30.2213
30.254
30.286
30.3174
30.348
30.3779
30.4072
30.4358
30.4637
30.4909
30.5174
30.5432
30.5683
30.5928
30.6165
30.6396
30.6619
30.6836
30.7046
30.7249
30.7444
30.7633
30.7815
30.799
30.8158
30.8319
30.8473
30.862
30.876
30.8893
30.9019
30.9138
30.925
30.9355
30.9453
30.9544
30.9628
30.9705
30.9776
30.9839
30.9895
30.9944
30.9986
31.0021
31.0049
31.007
31.0084
31.0091
35.6677
35.6534
35.6248
35.5828
35.528
35.4616
35.3842
35.297
35.2005
35.0956
34.9827
34.8625
34.7352
34.6015
34.4615
34.3157
34.1643
34.0077
33.8462
33.6801
33.5096
33.3351
33.1568
32.9749
32.7897
32.6016
32.4106
32.2171
32.0212
31.8233
31.6236
31.4221
31.2193
31.0152
30.8102
30.6043
30.3978
30.1909
29.9838
29.7766
29.5696
29.3628
29.1565
28.9509
28.746
28.5421
28.3393
28.1377
27.9375
27.7388
27.5417
27.3464
27.153
26.9615
26.7722
26.5851
26.4003
26.218
26.0381
25.8608
25.6863
25.5144
25.3455
25.1794
25.0163
24.8563
24.6993
24.5455
24.3949
24.2476
24.1036
23.9629
23.8256
23.6917
23.5612
23.4342
23.3107
23.1907
23.0742
22.9613
22.8519
22.746
22.6437
22.545
22.4498
22.3582
22.2701
22.1855
22.1045
22.027
21.9529
21.8824
21.8153
21.7516
21.6913
21.6344
21.5809
21.5306
21.4837
21.44
21.3996
21.3623
21.3282
21.2971
21.2692
21.2443
21.2224
21.2034
21.1873
21.1741
21.1637
21.156
21.1511
21.1489
21.1493
21.1522
21.1577
21.1657
21.1761
21.1889
21.2041
21.2215
21.2412
21.263
21.287
21.3131
21.3413
21.3714
21.4035
21.4374
21.4733
21.5109
21.5502
21.5913
21.634
21.6784
21.7243
21.7717
21.8206
21.8709
21.9226
21.9756
22.03
22.0855
22.1423
22.2003
22.2593
22.3195
22.3807
22.4429
22.506
22.5701
22.6351
22.7009
22.7675
22.8349
22.903
22.9718
23.0413
23.1114
23.1821
23.2534
23.3252
23.3976
23.4703
23.5436
23.6172
23.6912
23.7656
23.8403
23.9153
23.9906
24.0661
24.1418
24.2177
24.2938
24.37
24.4463
24.5228
24.5993
24.6758
24.7524
24.829
24.9056
24.9822
25.0587
25.1351
25.2114
25.2876
25.3637
25.4397
25.5155
25.5911
25.6665
25.7417
25.8167
25.8915
25.966
26.0402
26.1141
26.1878
26.2611
26.3341
26.4068
26.4792
26.5511
26.6227
26.694
26.7648
26.8353
26.9053
26.9749
27.0441
27.1128
27.1811
27.2489
27.3163
27.3832
27.4496
27.5155
27.5809
27.6458
27.7102
27.7741
27.8375
27.9003
27.9626
28.0243
28.0855
28.1462
28.2062
28.2657
28.3247
28.383
28.4408
28.498
28.5546
28.6106
28.666
28.7208
28.775
28.8286
28.8816
28.9339
28.9856
29.0367
29.0872
29.1371
29.1863
29.2348
29.2828
29.3301
29.3767
29.4227
29.468
29.5127
29.5568
29.6001
29.6429
29.6849
29.7263
29.7671
29.8071
29.8465
29.8853
29.9233
29.9607
29.9974
30.0335
30.0688
30.1035
30.1375
30.1708
30.2035
30.2355
30.2667
30.2973
30.3272
30.3565
30.385
30.4129
30.44
30.4665
30.4923
30.5174
30.5418
30.5655
30.5885
30.6108
30.6325
30.6534
30.6737
30.6932
30.7121
30.7302
30.7477
30.7645
30.7805
30.7959
30.8106
30.8246
30.8378
30.8504
30.8623
30.8735
30.884
30.8938
30.9029
30.9113
30.919
30.926
30.9323
30.9379
30.9428
30.947
30.9505
30.9533
30.9554
30.9568
30.9575
35.634
35.6199
35.5916
35.5502
35.4959
35.43
35.3531
35.2662
35.17
35.0652
34.9524
34.8321
34.7047
34.5707
34.4305
34.2844
34.1328
33.976
33.8142
33.6479
33.4772
33.3024
33.1239
32.9419
32.7566
32.5683
32.3772
32.1836
31.9877
31.7897
31.5898
31.3884
31.1855
30.9814
30.7763
30.5704
30.364
30.1571
29.95
29.7428
29.5358
29.3291
29.1228
28.9172
28.7124
28.5086
28.3058
28.1043
27.9041
27.7055
27.5085
27.3133
27.12
26.9286
26.7394
26.5524
26.3677
26.1855
26.0057
25.8286
25.6541
25.4824
25.3136
25.1476
24.9847
24.8248
24.6679
24.5143
24.3638
24.2167
24.0728
23.9322
23.7951
23.6613
23.531
23.4041
23.2808
23.1609
23.0446
22.9318
22.8226
22.7169
22.6147
22.5161
22.4211
22.3296
22.2417
22.1573
22.0764
21.9991
21.9252
21.8548
21.7879
21.7244
21.6642
21.6075
21.5541
21.5041
21.4573
21.4138
21.3735
21.3364
21.3024
21.2715
21.2437
21.219
21.1972
21.1784
21.1625
21.1494
21.1391
21.1317
21.1269
21.1248
21.1253
21.1284
21.1341
21.1422
21.1528
21.1657
21.181
21.1986
21.2184
21.2404
21.2645
21.2907
21.319
21.3493
21.3815
21.4155
21.4515
21.4892
21.5287
21.5699
21.6127
21.6572
21.7032
21.7507
21.7997
21.8501
21.9019
21.9551
22.0095
22.0652
22.1221
22.1801
22.2393
22.2995
22.3608
22.4231
22.4863
22.5505
22.6155
22.6814
22.7481
22.8155
22.8837
22.9526
23.0222
23.0924
23.1631
23.2345
23.3064
23.3788
23.4516
23.5249
23.5986
23.6727
23.7471
23.8218
23.8969
23.9722
24.0477
24.1235
24.1995
24.2756
24.3519
24.4282
24.5047
24.5813
24.6578
24.7345
24.8111
24.8877
24.9643
25.0408
25.1173
25.1936
25.2699
25.346
25.422
25.4978
25.5734
25.6489
25.7241
25.7991
25.8739
25.9484
26.0226
26.0966
26.1702
26.2436
26.3166
26.3893
26.4617
26.5336
26.6053
26.6765
26.7473
26.8178
26.8878
26.9574
27.0266
27.0954
27.1637
27.2315
27.2988
27.3657
27.4321
27.4981
27.5635
27.6284
27.6928
27.7567
27.82
27.8829
27.9451
28.0069
28.0681
28.1287
28.1888
28.2483
28.3072
28.3656
28.4233
28.4805
28.5371
28.5931
28.6485
28.7033
28.7575
28.8111
28.864
28.9164
28.9681
29.0192
29.0696
29.1195
29.1687
29.2172
29.2652
29.3124
29.3591
29.4051
29.4504
29.4951
29.5391
29.5825
29.6252
29.6673
29.7086
29.7494
29.7894
29.8288
29.8675
29.9056
29.943
29.9797
30.0157
30.0511
30.0857
30.1197
30.1531
30.1857
30.2177
30.2489
30.2795
30.3094
30.3386
30.3672
30.395
30.4222
30.4486
30.4744
30.4995
30.5239
30.5476
30.5706
30.5929
30.6146
30.6355
30.6557
30.6753
30.6941
30.7123
30.7297
30.7465
30.7626
30.7779
30.7926
30.8066
30.8199
30.8325
30.8444
30.8555
30.866
30.8758
30.8849
30.8933
30.901
30.908
30.9143
30.9199
30.9248
30.929
30.9325
30.9353
30.9374
30.9388
30.9395
35.5806
35.5664
35.5378
35.4959
35.4411
35.3746
35.297
35.2093
35.1123
35.0067
34.893
34.7719
34.6438
34.5091
34.3683
34.2217
34.0696
33.9124
33.7503
33.5837
33.4127
33.2378
33.0592
32.877
32.6917
32.5033
32.3122
32.1186
31.9227
31.7248
31.525
31.3237
31.1209
30.9169
30.712
30.5062
30.2999
30.0932
29.8862
29.6792
29.4724
29.2659
29.0599
28.8545
28.6499
28.4463
28.2437
28.0424
27.8425
27.6441
27.4474
27.2524
27.0593
26.8683
26.6793
26.4926
26.3082
26.1262
25.9467
25.7698
25.5956
25.4242
25.2556
25.0899
24.9273
24.7676
24.6111
24.4577
24.3075
24.1606
24.017
23.8768
23.7399
23.6064
23.4763
23.3498
23.2267
23.1071
22.9911
22.8785
22.7696
22.6641
22.5623
22.4639
22.3692
22.278
22.1903
22.1062
22.0255
21.9484
21.8748
21.8047
21.738
21.6747
21.6148
21.5583
21.5052
21.4554
21.4088
21.3655
21.3255
21.2886
21.2548
21.2242
21.1966
21.1721
21.1505
21.1319
21.1161
21.1033
21.0932
21.0859
21.0813
21.0794
21.0801
21.0834
21.0893
21.0976
21.1083
21.1214
21.1368
21.1546
21.1745
21.1967
21.2209
21.2473
21.2757
21.3061
21.3384
21.3726
21.4087
21.4466
21.4862
21.5275
21.5704
21.615
21.6611
21.7087
21.7578
21.8083
21.8602
21.9134
21.9679
22.0237
22.0806
22.1388
22.198
22.2583
22.3196
22.382
22.4453
22.5095
22.5746
22.6405
22.7072
22.7747
22.843
22.9119
22.9815
23.0517
23.1225
23.1939
23.2658
23.3382
23.4111
23.4844
23.5581
23.6322
23.7066
23.7814
23.8565
23.9318
24.0073
24.0831
24.159
24.2352
24.3114
24.3878
24.4643
24.5408
24.6174
24.694
24.7706
24.8472
24.9237
25.0003
25.0767
25.153
25.2293
25.3053
25.3813
25.4571
25.5327
25.6081
25.6833
25.7583
25.833
25.9075
25.9817
26.0556
26.1292
26.2025
26.2755
26.3482
26.4205
26.4924
26.564
26.6352
26.706
26.7764
26.8464
26.916
26.9851
27.0538
27.1221
27.1898
27.2572
27.324
27.3904
27.4562
27.5216
27.5865
27.6508
27.7146
27.778
27.8407
27.903
27.9647
28.0258
28.0864
28.1464
28.2059
28.2647
28.323
28.3808
28.4379
28.4944
28.5504
28.6057
28.6605
28.7146
28.7682
28.8211
28.8734
28.925
28.9761
29.0265
29.0763
29.1255
29.174
29.2219
29.2691
29.3157
29.3616
29.4069
29.4516
29.4955
29.5389
29.5815
29.6235
29.6649
29.7056
29.7456
29.785
29.8236
29.8617
29.899
29.9357
29.9717
30.007
30.0416
30.0756
30.1089
30.1415
30.1734
30.2046
30.2352
30.2651
30.2942
30.3227
30.3506
30.3777
30.4041
30.4299
30.4549
30.4793
30.503
30.526
30.5483
30.5699
30.5908
30.611
30.6305
30.6494
30.6675
30.6849
30.7017
30.7177
30.7331
30.7477
30.7617
30.775
30.7875
30.7994
30.8106
30.8211
30.8308
30.8399
30.8483
30.856
30.863
30.8693
30.8749
30.8798
30.884
30.8874
30.8902
30.8923
30.8937
30.8944
35.5349
35.5209
35.4928
35.4515
35.3974
35.3315
35.2545
35.1673
35.0706
34.9652
34.8516
34.7305
34.6022
34.4674
34.3263
34.1793
34.0269
33.8693
33.7069
33.5399
33.3687
33.1935
33.0146
32.8322
32.6466
32.4581
32.2668
32.073
31.877
31.679
31.4791
31.2776
31.0748
30.8707
30.6657
30.4599
30.2536
30.0469
29.8399
29.6329
29.4261
29.2196
29.0137
28.8083
28.6038
28.4002
28.1977
27.9965
27.7967
27.5984
27.4018
27.2069
27.0139
26.823
26.6341
26.4475
26.2632
26.0814
25.902
25.7253
25.5513
25.38
25.2116
25.0461
24.8836
24.7241
24.5677
24.4145
24.2646
24.1178
23.9744
23.8343
23.6977
23.5644
23.4345
23.3082
23.1853
23.0659
22.9501
22.8378
22.729
22.6238
22.5222
22.4241
22.3295
22.2386
22.1511
22.0672
21.9868
21.9099
21.8366
21.7666
21.7002
21.6371
21.5775
21.5212
21.4683
21.4187
21.3724
21.3294
21.2895
21.2529
21.2194
21.189
21.1616
21.1373
21.116
21.0976
21.0821
21.0694
21.0596
21.0525
21.0482
21.0465
21.0474
21.0509
21.057
21.0655
21.0764
21.0898
21.1054
21.1233
21.1435
21.1659
21.1903
21.2169
21.2455
21.2761
21.3086
21.343
21.3793
21.4173
21.4571
21.4986
21.5417
21.5864
21.6327
21.6805
21.7298
21.7805
21.8325
21.8859
21.9406
21.9965
22.0536
22.1118
22.1712
22.2317
22.2932
22.3556
22.4191
22.4834
22.5486
22.6147
22.6815
22.7492
22.8175
22.8866
22.9563
23.0266
23.0975
23.169
23.241
23.3135
23.3865
23.4599
23.5337
23.6079
23.6824
23.7573
23.8324
23.9078
23.9834
24.0593
24.1353
24.2115
24.2878
24.3643
24.4408
24.5174
24.5941
24.6707
24.7474
24.8241
24.9007
24.9772
25.0537
25.1301
25.2064
25.2825
25.3585
25.4344
25.51
25.5855
25.6607
25.7357
25.8105
25.885
25.9592
26.0332
26.1068
26.1802
26.2532
26.3259
26.3982
26.4702
26.5418
26.613
26.6838
26.7542
26.8243
26.8938
26.963
27.0317
27.1
27.1678
27.2351
27.3019
27.3683
27.4342
27.4996
27.5644
27.6288
27.6926
27.756
27.8187
27.881
27.9427
28.0038
28.0644
28.1244
28.1839
28.2428
28.3011
28.3588
28.4159
28.4725
28.5284
28.5838
28.6385
28.6927
28.7462
28.7991
28.8514
28.9031
28.9541
29.0045
29.0543
29.1035
29.152
29.1998
29.2471
29.2936
29.3396
29.3849
29.4295
29.4735
29.5168
29.5595
29.6015
29.6428
29.6835
29.7235
29.7629
29.8015
29.8395
29.8769
29.9135
29.9495
29.9848
30.0195
30.0534
30.0867
30.1193
30.1512
30.1824
30.213
30.2429
30.272
30.3005
30.3283
30.3555
30.3819
30.4076
30.4327
30.457
30.4807
30.5037
30.526
30.5476
30.5685
30.5887
30.6082
30.6271
30.6452
30.6626
30.6794
30.6954
30.7108
30.7254
30.7394
30.7526
30.7652
30.7771
30.7882
30.7987
30.8085
30.8176
30.8259
30.8336
30.8406
30.8469
30.8525
30.8574
30.8616
30.8651
30.8679
30.87
30.8714
30.8721
35.4743
35.4604
35.4324
35.3912
35.3371
35.2713
35.1942
35.1069
35.0099
34.9041
34.7901
34.6685
34.5397
34.4042
34.2626
34.1151
33.9622
33.8042
33.6413
33.474
33.3024
33.1269
32.9477
32.7651
32.5794
32.3906
32.1992
32.0054
31.8093
31.6111
31.4112
31.2098
31.0069
30.8029
30.5979
30.3922
30.1859
29.9793
29.7724
29.5656
29.3589
29.1525
28.9467
28.7415
28.5371
28.3337
28.1314
27.9304
27.7307
27.5326
27.3362
27.1415
26.9488
26.758
26.5694
26.383
26.199
26.0174
25.8383
25.6618
25.488
25.317
25.1489
24.9836
24.8214
24.6622
24.5061
24.3532
24.2035
24.0571
23.9139
23.7741
23.6377
23.5048
23.3752
23.2491
23.1266
23.0075
22.8919
22.7799
22.6715
22.5666
22.4652
22.3674
22.2732
22.1825
22.0954
22.0118
21.9317
21.8551
21.782
21.7124
21.6462
21.5835
21.5242
21.4682
21.4156
21.3663
21.3203
21.2775
21.2379
21.2016
21.1683
21.1382
21.1112
21.0871
21.0661
21.0479
21.0327
21.0204
21.0108
21.004
20.9999
20.9985
20.9996
21.0034
21.0097
21.0184
21.0296
21.0432
21.0591
21.0772
21.0976
21.1202
21.1449
21.1717
21.2005
21.2313
21.264
21.2986
21.3351
21.3733
21.4133
21.455
21.4983
21.5432
21.5897
21.6376
21.6871
21.7379
21.7901
21.8437
21.8985
21.9545
22.0118
22.0702
22.1297
22.1903
22.2519
22.3145
22.3781
22.4426
22.5079
22.5741
22.6411
22.7088
22.7772
22.8464
22.9162
22.9866
23.0577
23.1292
23.2013
23.2739
23.347
23.4205
23.4943
23.5686
23.6432
23.7181
23.7933
23.8687
23.9444
24.0203
24.0964
24.1727
24.249
24.3255
24.4021
24.4788
24.5554
24.6321
24.7089
24.7855
24.8622
24.9388
25.0153
25.0917
25.168
25.2442
25.3202
25.396
25.4717
25.5471
25.6224
25.6974
25.7722
25.8467
25.9209
25.9949
26.0686
26.1419
26.2149
26.2876
26.3599
26.4319
26.5035
26.5747
26.6455
26.7159
26.7859
26.8555
26.9246
26.9933
27.0616
27.1294
27.1967
27.2635
27.3299
27.3957
27.4611
27.5259
27.5903
27.6541
27.7174
27.7801
27.8424
27.904
27.9652
28.0257
28.0857
28.1451
28.204
28.2623
28.32
28.3771
28.4336
28.4895
28.5449
28.5996
28.6537
28.7072
28.7601
28.8123
28.864
28.915
28.9654
29.0151
29.0642
29.1127
29.1606
29.2078
29.2543
29.3002
29.3455
29.3901
29.4341
29.4773
29.52
29.562
29.6033
29.6439
29.6839
29.7232
29.7619
29.7999
29.8372
29.8738
29.9098
29.9451
29.9797
30.0136
30.0468
30.0794
30.1113
30.1425
30.173
30.2029
30.232
30.2605
30.2883
30.3154
30.3418
30.3675
30.3926
30.4169
30.4406
30.4635
30.4858
30.5074
30.5283
30.5485
30.568
30.5868
30.6049
30.6223
30.6391
30.6551
30.6704
30.6851
30.699
30.7123
30.7248
30.7367
30.7479
30.7583
30.7681
30.7772
30.7855
30.7932
30.8002
30.8065
30.8121
30.8169
30.8211
30.8246
30.8274
30.8295
30.8309
30.8316
35.4186
35.4049
35.3773
35.3367
35.2834
35.2182
35.1418
35.055
34.9584
34.8529
34.739
34.6173
34.4884
34.3527
34.2108
34.063
33.9097
33.7513
33.588
33.4203
33.2484
33.0725
32.893
32.7101
32.524
32.335
32.1434
31.9493
31.753
31.5547
31.3546
31.153
30.95
30.7459
30.5408
30.3351
30.1287
29.922
29.7151
29.5083
29.3016
29.0952
28.8894
28.6842
28.4799
28.2766
28.0743
27.8734
27.6738
27.4758
27.2795
27.085
26.8923
26.7017
26.5132
26.327
26.1431
25.9616
25.7827
25.6064
25.4328
25.262
25.094
24.929
24.7669
24.6079
24.4521
24.2994
24.1499
24.0037
23.8608
23.7213
23.5851
23.4524
23.3231
23.1973
23.0749
22.9561
22.8408
22.7291
22.6209
22.5163
22.4152
22.3177
22.2238
22.1334
22.0465
21.9632
21.8834
21.8072
21.7344
21.6651
21.5992
21.5368
21.4777
21.4221
21.3697
21.3208
21.275
21.2326
21.1933
21.1573
21.1244
21.0945
21.0678
21.0441
21.0233
21.0055
20.9906
20.9785
20.9692
20.9627
20.9589
20.9578
20.9593
20.9633
20.9699
20.979
20.9904
21.0043
21.0204
21.0389
21.0596
21.0824
21.1074
21.1344
21.1635
21.1946
21.2276
21.2624
21.2991
21.3376
21.3779
21.4198
21.4633
21.5085
21.5552
21.6034
21.6531
21.7041
21.7566
21.8103
21.8654
21.9216
21.9791
22.0377
22.0974
22.1582
22.22
22.2828
22.3466
22.4112
22.4768
22.5431
22.6103
22.6782
22.7468
22.8161
22.8861
22.9567
23.0279
23.0996
23.1718
23.2446
23.3178
23.3914
23.4654
23.5398
23.6145
23.6896
23.7649
23.8405
23.9163
23.9923
24.0685
24.1448
24.2213
24.2979
24.3746
24.4513
24.5281
24.6049
24.6817
24.7585
24.8352
24.9119
24.9885
25.065
25.1414
25.2176
25.2937
25.3696
25.4453
25.5209
25.5962
25.6713
25.7461
25.8207
25.895
25.969
26.0427
26.1161
26.1891
26.2619
26.3342
26.4063
26.4779
26.5491
26.62
26.6904
26.7605
26.8301
26.8993
26.968
27.0363
27.1041
27.1714
27.2383
27.3047
27.3705
27.4359
27.5008
27.5652
27.629
27.6923
27.7551
27.8173
27.879
27.9401
28.0007
28.0607
28.1202
28.179
28.2373
28.295
28.3521
28.4087
28.4646
28.5199
28.5746
28.6288
28.6823
28.7351
28.7874
28.8391
28.8901
28.9405
28.9902
29.0393
29.0878
29.1357
29.1829
29.2294
29.2753
29.3206
29.3652
29.4091
29.4524
29.4951
29.537
29.5784
29.619
29.659
29.6983
29.7369
29.7749
29.8122
29.8489
29.8848
29.9201
29.9547
29.9886
30.0219
30.0544
30.0863
30.1175
30.1481
30.1779
30.207
30.2355
30.2633
30.2904
30.3168
30.3425
30.3675
30.3919
30.4155
30.4385
30.4608
30.4823
30.5032
30.5234
30.5429
30.5617
30.5798
30.5973
30.614
30.63
30.6453
30.66
30.6739
30.6872
30.6997
30.7116
30.7227
30.7332
30.743
30.752
30.7604
30.7681
30.7751
30.7813
30.7869
30.7918
30.796
30.7995
30.8023
30.8044
30.8058
30.8065
35.3516
35.338
35.3107
35.2704
35.2174
35.1525
35.0763
34.9897
34.8932
34.7875
34.6734
34.5514
34.4221
34.286
34.1436
33.9953
33.8415
33.6826
33.5189
33.3507
33.1784
33.0021
32.8223
32.639
32.4527
32.2634
32.0716
31.8773
31.6808
31.4824
31.2822
31.0804
30.8774
30.6732
30.4681
30.2623
30.056
29.8493
29.6425
29.4357
29.229
29.0227
28.817
28.6119
28.4077
28.2045
28.0024
27.8016
27.6022
27.4044
27.2082
27.0138
26.8214
26.631
26.4427
26.2567
26.073
25.8918
25.7131
25.537
25.3637
25.1931
25.0254
24.8606
24.6988
24.5401
24.3846
24.2321
24.083
23.937
23.7944
23.6552
23.5194
23.3869
23.258
23.1325
23.0105
22.892
22.7771
22.6656
22.5578
22.4535
22.3528
22.2556
22.162
22.072
21.9855
21.9025
21.8231
21.7471
21.6747
21.6058
21.5402
21.4782
21.4195
21.3642
21.3122
21.2636
21.2182
21.1761
21.1372
21.1015
21.0689
21.0395
21.0131
20.9897
20.9693
20.9518
20.9372
20.9255
20.9166
20.9104
20.9069
20.9061
20.9079
20.9123
20.9192
20.9286
20.9404
20.9545
20.971
20.9898
21.0107
21.0339
21.0592
21.0865
21.1159
21.1472
21.1805
21.2156
21.2526
21.2914
21.3319
21.3741
21.4179
21.4633
21.5102
21.5587
21.6086
21.6599
21.7126
21.7666
21.8218
21.8783
21.936
21.9948
22.0548
22.1158
22.1778
22.2408
22.3047
22.3696
22.4353
22.5018
22.5691
22.6372
22.706
22.7755
22.8456
22.9164
22.9877
23.0596
23.132
23.2049
23.2782
23.3519
23.4261
23.5006
23.5755
23.6506
23.7261
23.8018
23.8777
23.9538
24.0301
24.1066
24.1831
24.2598
24.3366
24.4134
24.4903
24.5672
24.6441
24.7209
24.7977
24.8745
24.9511
25.0277
25.1041
25.1804
25.2566
25.3325
25.4083
25.4839
25.5593
25.6344
25.7093
25.7839
25.8582
25.9323
26.006
26.0795
26.1526
26.2253
26.2977
26.3698
26.4414
26.5127
26.5836
26.654
26.7241
26.7937
26.8629
26.9316
26.9999
27.0678
27.1351
27.202
27.2684
27.3343
27.3996
27.4645
27.5289
27.5927
27.656
27.7188
27.781
27.8427
27.9039
27.9644
28.0244
28.0839
28.1427
28.201
28.2587
28.3158
28.3724
28.4283
28.4836
28.5383
28.5924
28.6459
28.6988
28.751
28.8027
28.8537
28.9041
28.9538
29.0029
29.0514
29.0992
29.1464
29.1929
29.2388
29.2841
29.3287
29.3726
29.4159
29.4585
29.5005
29.5418
29.5824
29.6223
29.6616
29.7003
29.7382
29.7755
29.8121
29.8481
29.8834
29.9179
29.9519
29.9851
30.0176
30.0495
30.0807
30.1112
30.141
30.1702
30.1986
30.2264
30.2535
30.2799
30.3056
30.3306
30.3549
30.3786
30.4015
30.4238
30.4453
30.4662
30.4864
30.5059
30.5247
30.5428
30.5602
30.5769
30.5929
30.6082
30.6229
30.6368
30.65
30.6626
30.6744
30.6856
30.696
30.7058
30.7149
30.7232
30.7309
30.7379
30.7442
30.7497
30.7546
30.7588
30.7623
30.7651
30.7672
30.7686
30.7693
35.2871
35.2737
35.2468
35.207
35.1547
35.0905
35.0149
34.9287
34.8326
34.7272
34.6132
34.4913
34.3618
34.2255
34.0828
33.9342
33.78
33.6207
33.4565
33.2879
33.1152
32.9385
32.7582
32.5746
32.3879
32.1984
32.0062
31.8116
31.6149
31.4162
31.2158
31.0139
30.8107
30.6064
30.4012
30.1953
29.9888
29.7821
29.5752
29.3683
29.1617
28.9554
28.7496
28.5446
28.3404
28.1372
27.9352
27.7345
27.5352
27.3374
27.1414
26.9471
26.7548
26.5645
26.3764
26.1905
26.007
25.8259
25.6474
25.4716
25.2984
25.128
24.9606
24.796
24.6345
24.476
24.3207
24.1685
24.0196
23.8739
23.7316
23.5927
23.4571
23.325
23.1963
23.0711
22.9494
22.8312
22.7166
22.6055
22.498
22.3941
22.2937
22.1969
22.1036
22.0139
21.9278
21.8451
21.7661
21.6905
21.6184
21.5498
21.4847
21.423
21.3647
21.3097
21.2582
21.2099
21.1649
21.1232
21.0847
21.0494
21.0172
20.9881
20.9621
20.939
20.919
20.9019
20.8877
20.8764
20.8678
20.862
20.8589
20.8585
20.8607
20.8654
20.8727
20.8824
20.8946
20.9091
20.9259
20.945
20.9663
20.9898
21.0155
21.0431
21.0728
21.1045
21.1381
21.1736
21.2109
21.25
21.2908
21.3333
21.3774
21.4232
21.4704
21.5192
21.5694
21.621
21.6739
21.7282
21.7837
21.8405
21.8985
21.9576
22.0178
22.079
22.1413
22.2045
22.2687
22.3338
22.3997
22.4665
22.5341
22.6024
22.6714
22.7411
22.8115
22.8824
22.9539
23.026
23.0986
23.1717
23.2452
23.3192
23.3935
23.4682
23.5432
23.6185
23.6941
23.77
23.8461
23.9224
23.9988
24.0754
24.1522
24.229
24.3059
24.3829
24.4599
24.5369
24.6139
24.6908
24.7678
24.8446
24.9214
24.9981
25.0746
25.151
25.2273
25.3033
25.3792
25.4549
25.5304
25.6056
25.6805
25.7552
25.8297
25.9038
25.9776
26.0511
26.1243
26.1971
26.2696
26.3417
26.4134
26.4847
26.5557
26.6262
26.6963
26.766
26.8352
26.904
26.9723
27.0402
27.1076
27.1745
27.241
27.3069
27.3723
27.4372
27.5016
27.5655
27.6288
27.6916
27.7539
27.8156
27.8768
27.9374
27.9974
28.0569
28.1157
28.1741
28.2318
28.2889
28.3454
28.4014
28.4567
28.5114
28.5656
28.6191
28.672
28.7242
28.7759
28.8269
28.8773
28.927
28.9761
29.0246
29.0725
29.1196
29.1662
29.2121
29.2573
29.3019
29.3459
29.3892
29.4318
29.4737
29.515
29.5557
29.5956
29.6349
29.6736
29.7115
29.7488
29.7854
29.8214
29.8566
29.8912
29.9251
29.9584
29.9909
30.0228
30.054
30.0845
30.1143
30.1434
30.1719
30.1997
30.2267
30.2531
30.2788
30.3038
30.3282
30.3518
30.3748
30.397
30.4186
30.4394
30.4596
30.4791
30.4979
30.516
30.5334
30.5501
30.5661
30.5815
30.5961
30.61
30.6233
30.6358
30.6476
30.6588
30.6693
30.679
30.6881
30.6964
30.7041
30.7111
30.7174
30.7229
30.7278
30.732
30.7355
30.7383
30.7404
30.7418
30.7425
35.2137
35.2004
35.1738
35.1344
35.0825
35.0187
34.9435
34.8576
34.7616
34.6563
34.5423
34.4201
34.2904
34.1538
34.0107
33.8616
33.7069
33.5471
33.3825
33.2134
33.0402
32.8631
32.6824
32.4984
32.3113
32.1214
31.929
31.7341
31.5371
31.3382
31.1377
30.9356
30.7322
30.5278
30.3225
30.1165
29.91
29.7032
29.4963
29.2894
29.0828
28.8765
28.6708
28.4659
28.2618
28.0587
27.8567
27.6561
27.4569
27.2593
27.0634
26.8693
26.6772
26.4871
26.2991
26.1135
25.9302
25.7493
25.5711
25.3954
25.2225
25.0524
24.8852
24.7209
24.5597
24.4015
24.2464
24.0946
23.946
23.8006
23.6586
23.52
23.3848
23.253
23.1247
22.9998
22.8785
22.7607
22.6464
22.5357
22.4286
22.325
22.225
22.1286
22.0357
21.9464
21.8607
21.7785
21.6998
21.6246
21.553
21.4848
21.4201
21.3588
21.3009
21.2464
21.1952
21.1474
21.1028
21.0615
21.0234
20.9885
20.9567
20.9281
20.9024
20.8799
20.8602
20.8436
20.8298
20.8188
20.8107
20.8053
20.8026
20.8026
20.8052
20.8103
20.818
20.8281
20.8407
20.8556
20.8728
20.8923
20.914
20.9378
20.9638
20.9919
21.022
21.054
21.088
21.1238
21.1615
21.2009
21.242
21.2849
21.3293
21.3754
21.423
21.472
21.5225
21.5744
21.6277
21.6823
21.7381
21.7952
21.8534
21.9128
21.9733
22.0348
22.0973
22.1609
22.2253
22.2906
22.3568
22.4238
22.4916
22.5602
22.6294
22.6994
22.7699
22.8411
22.9129
22.9851
23.0579
23.1312
23.2049