/*--------------------------------*- C++ -*----------------------------------*\
| =========                 |                                                 |
| \\      /  F ield         | OpenFOAM: The Open Source CFD Toolbox           |
|  \\    /   O peration     | Version:  2212                                  |
|   \\  /    A nd           | Website:  www.openfoam.com                      |
|    \\/     M anipulation  |                                                 |
\*---------------------------------------------------------------------------*/
FoamFile
{
    version     2.0;
    format      ascii;
    arch        "LSB;label=32;scalar=64";
    class       volScalarField;
    location    "530";
    object      p_rgh;
}
// * * * * * * * * * * * * * * * * * * * * * * * * * * * * * * * * * * * * * //

dimensions      [1 -1 -2 0 0 0 0];

internalField   nonuniform List<scalar> 
204800
(
41.7471
41.7369
41.7182
41.6903
41.6533
41.6074
41.5529
41.4901
41.4193
41.3409
41.2554
41.163
41.064
40.9589
40.8477
40.7309
40.6087
40.4812
40.3486
40.2112
40.0691
39.9226
39.7717
39.6168
39.458
39.2954
39.1293
38.9598
38.787
38.6113
38.4327
38.2514
38.0676
37.8814
37.6931
37.5028
37.3106
37.1167
36.9214
36.7246
36.5267
36.3277
36.1279
35.9272
35.726
35.5243
35.3223
35.1201
34.9179
34.7158
34.5139
34.3123
34.1112
33.9107
33.7109
33.5119
33.3138
33.1168
32.9209
32.7263
32.533
32.3411
32.1508
31.9621
31.7752
31.59
31.4066
31.2253
31.046
30.8687
30.6936
30.5208
30.3503
30.1821
30.0163
29.853
29.6922
29.534
29.3784
29.2254
29.0751
28.9275
28.7827
28.6406
28.5014
28.365
28.2314
28.1007
27.973
27.8481
27.7262
27.6072
27.4911
27.378
27.2678
27.1606
27.0564
26.9551
26.8567
26.7613
26.6689
26.5793
26.4927
26.409
26.3282
26.2502
26.1751
26.1029
26.0335
25.9668
25.903
25.8419
25.7835
25.7278
25.6748
25.6245
25.5768
25.5317
25.4891
25.4491
25.4115
25.3765
25.3439
25.3136
25.2858
25.2603
25.2371
25.2161
25.1974
25.1809
25.1665
25.1543
25.1441
25.136
25.1299
25.1257
25.1235
25.1233
25.1248
25.1282
25.1334
25.1403
25.1489
25.1592
25.1712
25.1847
25.1998
25.2165
25.2346
25.2541
25.2751
25.2975
25.3212
25.3462
25.3725
25.4001
25.4288
25.4587
25.4898
25.5219
25.5552
25.5894
25.6247
25.6609
25.6981
25.7362
25.7752
25.815
25.8556
25.897
25.9392
25.9821
26.0257
26.07
26.1149
26.1604
26.2065
26.2532
26.3004
26.3481
26.3964
26.445
26.4941
26.5437
26.5936
26.6438
26.6944
26.7453
26.7966
26.8481
26.8998
26.9518
27.004
27.0563
27.1089
27.1616
27.2144
27.2674
27.3204
27.3735
27.4267
27.4799
27.5331
27.5864
27.6396
27.6928
27.746
27.7991
27.8522
27.9051
27.958
28.0107
28.0634
28.1158
28.1682
28.2203
28.2723
28.3241
28.3757
28.427
28.4782
28.5291
28.5797
28.6301
28.6803
28.7301
28.7796
28.8289
28.8778
28.9265
28.9747
29.0227
29.0703
29.1176
29.1645
29.211
29.2571
29.3029
29.3482
29.3932
29.4377
29.4819
29.5256
29.5689
29.6117
29.6542
29.6961
29.7376
29.7787
29.8193
29.8594
29.8991
29.9382
29.9769
30.0151
30.0528
30.09
30.1267
30.1629
30.1986
30.2337
30.2684
30.3025
30.3361
30.3691
30.4017
30.4337
30.4651
30.496
30.5264
30.5562
30.5854
30.6141
30.6422
30.6698
30.6968
30.7233
30.7491
30.7744
30.7991
30.8233
30.8468
30.8698
30.8922
30.9141
30.9353
30.9559
30.976
30.9954
31.0143
31.0326
31.0503
31.0674
31.0838
31.0997
31.115
31.1297
31.1438
31.1572
31.1701
31.1823
31.194
31.205
31.2155
31.2253
31.2345
31.2431
31.2511
31.2585
31.2653
31.2714
31.2769
31.2819
31.2862
31.2899
31.293
31.2954
31.2973
31.2985
31.2991
41.6986
41.6873
41.6654
41.6334
41.5919
41.5418
41.4834
41.4175
41.3442
41.264
41.177
41.0837
40.9841
40.8786
40.7673
40.6504
40.5281
40.4006
40.2682
40.1309
39.989
39.8426
39.692
39.5373
39.3787
39.2164
39.0505
38.8812
38.7088
38.5333
38.355
38.174
37.9905
37.8046
37.6166
37.4266
37.2348
37.0413
36.8462
36.6498
36.4523
36.2536
36.0541
35.8538
35.653
35.4516
35.25
35.0482
34.8463
34.6445
34.443
34.2418
34.041
33.8409
33.6414
33.4428
33.2451
33.0485
32.853
32.6587
32.4658
32.2743
32.0843
31.896
31.7093
31.5245
31.3415
31.1605
30.9815
30.8046
30.6299
30.4574
30.2872
30.1193
29.9539
29.7909
29.6304
29.4725
29.3172
29.1645
29.0145
28.8672
28.7226
28.5809
28.4419
28.3058
28.1725
28.0421
27.9146
27.79
27.6683
27.5495
27.4337
27.3208
27.2109
27.1039
26.9999
26.8988
26.8007
26.7055
26.6132
26.5239
26.4374
26.3539
26.2733
26.1955
26.1206
26.0485
25.9792
25.9127
25.849
25.7881
25.7298
25.6743
25.6214
25.5712
25.5236
25.4786
25.4361
25.3962
25.3588
25.3238
25.2913
25.2612
25.2334
25.208
25.1848
25.1639
25.1453
25.1288
25.1145
25.1023
25.0922
25.0841
25.078
25.0739
25.0718
25.0715
25.0731
25.0765
25.0817
25.0886
25.0973
25.1076
25.1195
25.1331
25.1482
25.1648
25.1829
25.2025
25.2235
25.2458
25.2695
25.2945
25.3208
25.3483
25.377
25.4069
25.4379
25.47
25.5032
25.5374
25.5726
25.6088
25.6459
25.684
25.7229
25.7626
25.8032
25.8446
25.8867
25.9295
25.9731
26.0173
26.0621
26.1076
26.1536
26.2002
26.2474
26.295
26.3432
26.3918
26.4408
26.4902
26.54
26.5902
26.6408
26.6916
26.7427
26.7941
26.8458
26.8977
26.9498
27.0021
27.0546
27.1072
27.1599
27.2128
27.2657
27.3187
27.3718
27.4249
27.4781
27.5312
27.5844
27.6375
27.6906
27.7436
27.7966
27.8494
27.9022
27.9549
28.0074
28.0598
28.112
28.1641
28.216
28.2677
28.3192
28.3705
28.4215
28.4723
28.5229
28.5732
28.6232
28.673
28.7224
28.7716
28.8205
28.869
28.9172
28.9651
29.0126
29.0598
29.1066
29.153
29.1991
29.2447
29.29
29.3349
29.3794
29.4234
29.4671
29.5103
29.553
29.5954
29.6373
29.6787
29.7197
29.7602
29.8003
29.8398
29.8789
29.9176
29.9557
29.9933
30.0304
30.0671
30.1032
30.1388
30.1739
30.2085
30.2425
30.2761
30.3091
30.3415
30.3735
30.4049
30.4357
30.466
30.4957
30.5249
30.5536
30.5817
30.6092
30.6361
30.6625
30.6883
30.7136
30.7383
30.7624
30.7859
30.8088
30.8312
30.853
30.8742
30.8948
30.9148
30.9342
30.9531
30.9713
30.9889
31.006
31.0224
31.0383
31.0536
31.0682
31.0823
31.0957
31.1085
31.1208
31.1324
31.1434
31.1538
31.1636
31.1728
31.1814
31.1894
31.1968
31.2035
31.2097
31.2152
31.2201
31.2244
31.2281
31.2312
31.2336
31.2355
31.2367
31.2373
41.6823
41.6712
41.6494
41.6177
41.5764
41.5264
41.4682
41.4023
41.329
41.2487
41.1616
41.0681
40.9684
40.8627
40.7512
40.6342
40.5117
40.3841
40.2515
40.1141
39.9721
39.8256
39.6749
39.5201
39.3614
39.199
39.033
38.8637
38.6912
38.5156
38.3372
38.1562
37.9726
37.7868
37.5987
37.4087
37.2168
37.0232
36.8282
36.6318
36.4341
36.2355
36.036
35.8357
35.6348
35.4335
35.2318
35.03
34.8281
34.6264
34.4248
34.2236
34.0229
33.8228
33.6233
33.4247
33.2271
33.0304
32.8349
32.6407
32.4478
32.2563
32.0664
31.8781
31.6915
31.5067
31.3238
31.1428
30.9638
30.787
30.6123
30.4398
30.2697
30.1019
29.9365
29.7735
29.6131
29.4552
29.3
29.1473
28.9974
28.8502
28.7057
28.564
28.4251
28.289
28.1558
28.0254
27.898
27.7734
27.6518
27.5331
27.4173
27.3045
27.1947
27.0877
26.9838
26.8828
26.7847
26.6896
26.5974
26.5081
26.4217
26.3383
26.2577
26.18
26.1051
26.0331
25.9639
25.8975
25.8338
25.7729
25.7148
25.6593
25.6065
25.5563
25.5088
25.4639
25.4215
25.3816
25.3442
25.3093
25.2769
25.2468
25.2191
25.1937
25.1706
25.1498
25.1312
25.1148
25.1005
25.0884
25.0783
25.0703
25.0643
25.0603
25.0581
25.0579
25.0596
25.063
25.0683
25.0753
25.0839
25.0943
25.1063
25.1199
25.135
25.1517
25.1699
25.1895
25.2105
25.2329
25.2566
25.2816
25.308
25.3355
25.3643
25.3942
25.4252
25.4574
25.4906
25.5248
25.5601
25.5963
25.6335
25.6715
25.7105
25.7503
25.7909
25.8323
25.8744
25.9173
25.9608
26.005
26.0499
26.0954
26.1415
26.1881
26.2353
26.283
26.3311
26.3797
26.4288
26.4782
26.5281
26.5783
26.6288
26.6797
26.7308
26.7822
26.8339
26.8858
26.9379
26.9902
27.0427
27.0953
27.1481
27.201
27.2539
27.307
27.36
27.4132
27.4663
27.5195
27.5727
27.6258
27.6789
27.7319
27.7849
27.8377
27.8905
27.9432
27.9957
28.0481
28.1004
28.1524
28.2043
28.256
28.3075
28.3588
28.4098
28.4607
28.5112
28.5615
28.6116
28.6613
28.7108
28.7599
28.8088
28.8573
28.9055
28.9534
29.0009
29.0481
29.0949
29.1413
29.1874
29.2331
29.2783
29.3232
29.3677
29.4118
29.4554
29.4986
29.5414
29.5837
29.6256
29.667
29.708
29.7485
29.7886
29.8281
29.8672
29.9059
29.944
29.9816
30.0187
30.0554
30.0915
30.1271
30.1622
30.1968
30.2308
30.2643
30.2973
30.3298
30.3617
30.3931
30.424
30.4542
30.484
30.5132
30.5418
30.5699
30.5974
30.6244
30.6507
30.6766
30.7018
30.7265
30.7506
30.7741
30.797
30.8194
30.8412
30.8624
30.883
30.903
30.9224
30.9412
30.9595
30.9771
30.9942
31.0106
31.0265
31.0417
31.0564
31.0704
31.0839
31.0967
31.1089
31.1206
31.1316
31.142
31.1518
31.161
31.1696
31.1776
31.1849
31.1917
31.1978
31.2033
31.2083
31.2126
31.2162
31.2193
31.2218
31.2236
31.2249
31.2255
41.63
41.6185
41.5955
41.5622
41.5192
41.4673
41.4072
41.3395
41.2647
41.1831
41.0949
41.0005
40.9001
40.7938
40.6818
40.5644
40.4417
40.3139
40.1812
40.0437
39.9016
39.7551
39.6043
39.4495
39.2909
39.1285
38.9626
38.7934
38.6209
38.4455
38.2672
38.0863
37.9029
37.7171
37.5293
37.3394
37.1477
36.9543
36.7594
36.5632
36.3658
36.1673
35.968
35.7679
35.5673
35.3662
35.1647
34.9632
34.7615
34.56
34.3587
34.1577
33.9573
33.7574
33.5582
33.3599
33.1624
32.9661
32.7708
32.5769
32.3842
32.193
32.0034
31.8153
31.629
31.4445
31.2618
31.0811
30.9024
30.7258
30.5514
30.3792
30.2093
30.0417
29.8766
29.7139
29.5538
29.3962
29.2411
29.0888
28.9391
28.7921
28.6479
28.5064
28.3677
28.2319
28.0989
27.9688
27.8416
27.7173
27.5959
27.4774
27.3619
27.2493
27.1397
27.033
26.9292
26.8284
26.7306
26.6357
26.5437
26.4546
26.3684
26.2852
26.2048
26.1272
26.0526
25.9807
25.9117
25.8455
25.782
25.7213
25.6633
25.6079
25.5553
25.5053
25.4579
25.4131
25.3709
25.3312
25.2939
25.2592
25.2268
25.1969
25.1693
25.144
25.1211
25.1004
25.0819
25.0656
25.0514
25.0394
25.0294
25.0215
25.0156
25.0116
25.0096
25.0094
25.0112
25.0147
25.02
25.0271
25.0358
25.0462
25.0583
25.0719
25.0871
25.1039
25.1221
25.1417
25.1628
25.1852
25.209
25.2341
25.2604
25.288
25.3168
25.3467
25.3778
25.4099
25.4432
25.4774
25.5127
25.5489
25.5861
25.6242
25.6631
25.7029
25.7435
25.7849
25.827
25.8699
25.9134
25.9577
26.0025
26.048
26.0941
26.1407
26.1878
26.2355
26.2836
26.3322
26.3812
26.4307
26.4805
26.5307
26.5812
26.632
26.6831
26.7345
26.7862
26.838
26.8901
26.9424
26.9948
27.0474
27.1001
27.1529
27.2058
27.2588
27.3119
27.365
27.4181
27.4712
27.5243
27.5774
27.6304
27.6834
27.7363
27.7892
27.8419
27.8945
27.947
27.9993
28.0515
28.1036
28.1554
28.207
28.2585
28.3097
28.3607
28.4115
28.462
28.5122
28.5622
28.6119
28.6613
28.7104
28.7592
28.8077
28.8559
28.9037
28.9512
28.9983
29.045
29.0914
29.1374
29.183
29.2283
29.2731
29.3175
29.3615
29.4051
29.4483
29.491
29.5333
29.5751
29.6165
29.6574
29.6979
29.7379
29.7774
29.8165
29.855
29.8931
29.9307
29.9678
30.0044
30.0404
30.076
30.1111
30.1456
30.1796
30.2131
30.246
30.2785
30.3103
30.3417
30.3725
30.4027
30.4325
30.4616
30.4902
30.5183
30.5457
30.5726
30.599
30.6248
30.65
30.6746
30.6987
30.7222
30.7451
30.7674
30.7892
30.8103
30.8309
30.8509
30.8703
30.8891
30.9073
30.9249
30.942
30.9584
30.9742
30.9895
31.0041
31.0181
31.0315
31.0444
31.0566
31.0682
31.0792
31.0896
31.0994
31.1086
31.1172
31.1251
31.1325
31.1392
31.1453
31.1509
31.1558
31.1601
31.1638
31.1668
31.1693
31.1711
31.1723
31.173
41.6022
41.5909
41.5684
41.5355
41.4929
41.4414
41.3816
41.314
41.2392
41.1575
41.0692
40.9746
40.8738
40.7673
40.655
40.5373
40.4143
40.2862
40.1532
40.0154
39.8731
39.7263
39.5754
39.4204
39.2615
39.099
38.9329
38.7635
38.5909
38.4153
38.2369
38.0559
37.8723
37.6865
37.4985
37.3085
37.1167
36.9232
36.7283
36.532
36.3345
36.136
35.9366
35.7365
35.5358
35.3347
35.1332
34.9316
34.7299
34.5284
34.3271
34.1261
33.9256
33.7258
33.5266
33.3283
33.1309
32.9345
32.7393
32.5453
32.3527
32.1616
31.972
31.784
31.5977
31.4132
31.2306
31.0499
30.8713
30.6948
30.5204
30.3483
30.1785
30.011
29.8459
29.6833
29.5232
29.3657
29.2108
29.0585
28.9089
28.762
28.6179
28.4765
28.338
28.2022
28.0694
27.9394
27.8123
27.6881
27.5668
27.4484
27.333
27.2205
27.111
27.0044
26.9008
26.8001
26.7024
26.6076
26.5157
26.4267
26.3407
26.2575
26.1773
26.0999
26.0253
25.9536
25.8847
25.8186
25.7552
25.6946
25.6368
25.5816
25.529
25.4792
25.4319
25.3872
25.3451
25.3055
25.2684
25.2337
25.2015
25.1717
25.1442
25.1191
25.0962
25.0756
25.0573
25.0411
25.027
25.0151
25.0053
24.9975
24.9916
24.9878
24.9859
24.9858
24.9877
24.9913
24.9967
25.0039
25.0127
25.0232
25.0354
25.0491
25.0644
25.0812
25.0995
25.1193
25.1404
25.1629
25.1868
25.212
25.2384
25.266
25.2949
25.3249
25.3561
25.3883
25.4216
25.456
25.4913
25.5276
25.5649
25.603
25.642
25.6819
25.7225
25.764
25.8062
25.8491
25.8927
25.937
25.9819
26.0274
26.0735
26.1202
26.1674
26.2151
26.2633
26.3119
26.361
26.4105
26.4603
26.5106
26.5611
26.612
26.6631
26.7146
26.7663
26.8182
26.8703
26.9226
26.975
27.0277
27.0804
27.1333
27.1862
27.2392
27.2923
27.3454
27.3986
27.4517
27.5048
27.5579
27.611
27.664
27.7169
27.7698
27.8225
27.8752
27.9277
27.98
28.0322
28.0843
28.1361
28.1878
28.2392
28.2905
28.3415
28.3923
28.4428
28.4931
28.5431
28.5928
28.6422
28.6913
28.7401
28.7886
28.8368
28.8846
28.9321
28.9792
29.0259
29.0723
29.1183
29.164
29.2092
29.254
29.2984
29.3424
29.386
29.4292
29.4719
29.5142
29.556
29.5974
29.6384
29.6788
29.7188
29.7584
29.7974
29.836
29.874
29.9116
29.9487
29.9853
30.0214
30.0569
30.092
30.1265
30.1605
30.194
30.2269
30.2594
30.2912
30.3226
30.3534
30.3836
30.4133
30.4425
30.4711
30.4991
30.5266
30.5535
30.5799
30.6057
30.6309
30.6555
30.6796
30.7031
30.726
30.7483
30.77
30.7912
30.8118
30.8317
30.8511
30.8699
30.8882
30.9058
30.9228
30.9392
30.9551
30.9703
30.9849
30.9989
31.0124
31.0252
31.0374
31.049
31.06
31.0704
31.0802
31.0894
31.098
31.1059
31.1133
31.12
31.1261
31.1317
31.1366
31.1409
31.1445
31.1476
31.1501
31.1519
31.1531
31.1538
41.5487
41.5373
41.5145
41.4812
41.4379
41.3857
41.325
41.2566
41.1809
41.0983
41.0092
40.9138
40.8124
40.7052
40.5924
40.4742
40.3508
40.2223
40.089
39.9509
39.8083
39.6613
39.5102
39.355
39.196
39.0333
38.8672
38.6977
38.525
38.3494
38.1709
37.9899
37.8063
37.6205
37.4325
37.2425
37.0507
36.8573
36.6624
36.4662
36.2688
36.0703
35.871
35.671
35.4704
35.2694
35.068
34.8665
34.665
34.4636
34.2624
34.0616
33.8613
33.6616
33.4625
33.2644
33.0671
32.871
32.6759
32.4821
32.2897
32.0988
31.9093
31.7215
31.5354
31.3511
31.1687
30.9883
30.8099
30.6336
30.4594
30.2875
30.1179
29.9506
29.7858
29.6234
29.4636
29.3062
29.1515
28.9995
28.8501
28.7035
28.5595
28.4184
28.2801
28.1446
28.0119
27.8822
27.7553
27.6313
27.5103
27.3921
27.2769
27.1647
27.0554
26.949
26.8456
26.7452
26.6476
26.553
26.4614
26.3727
26.2868
26.2039
26.1238
26.0467
25.9723
25.9008
25.8321
25.7662
25.703
25.6426
25.585
25.53
25.4776
25.428
25.3809
25.3364
25.2944
25.255
25.2181
25.1836
25.1516
25.1219
25.0946
25.0696
25.047
25.0265
25.0083
24.9923
24.9784
24.9666
24.9569
24.9492
24.9436
24.9399
24.9381
24.9382
24.9401
24.9439
24.9494
24.9567
24.9657
24.9763
24.9886
25.0024
25.0178
25.0348
25.0532
25.073
25.0943
25.1169
25.1408
25.1661
25.1926
25.2203
25.2493
25.2794
25.3106
25.3429
25.3763
25.4107
25.4461
25.4825
25.5198
25.558
25.5971
25.637
25.6777
25.7192
25.7614
25.8044
25.848
25.8924
25.9373
25.9829
26.029
26.0757
26.123
26.1707
26.2189
26.2676
26.3167
26.3662
26.4161
26.4663
26.5169
26.5678
26.6189
26.6704
26.7221
26.774
26.8261
26.8784
26.9309
26.9835
27.0363
27.0891
27.1421
27.1951
27.2482
27.3013
27.3544
27.4075
27.4607
27.5138
27.5668
27.6198
27.6727
27.7256
27.7783
27.8309
27.8834
27.9358
27.988
28.04
28.0918
28.1435
28.1949
28.2461
28.2971
28.3479
28.3984
28.4486
28.4986
28.5483
28.5977
28.6468
28.6955
28.744
28.7921
28.8399
28.8874
28.9345
28.9812
29.0276
29.0736
29.1192
29.1644
29.2092
29.2536
29.2975
29.3411
29.3842
29.4269
29.4692
29.511
29.5524
29.5933
29.6337
29.6737
29.7132
29.7522
29.7907
29.8288
29.8663
29.9034
29.9399
29.976
30.0115
30.0465
30.0811
30.115
30.1485
30.1814
30.2138
30.2457
30.277
30.3078
30.338
30.3677
30.3968
30.4254
30.4534
30.4808
30.5077
30.5341
30.5598
30.585
30.6096
30.6337
30.6571
30.68
30.7023
30.7241
30.7452
30.7658
30.7857
30.8051
30.8239
30.8421
30.8597
30.8767
30.8931
30.9089
30.9241
30.9387
30.9528
30.9662
30.979
30.9912
31.0028
31.0138
31.0242
31.0339
31.0431
31.0517
31.0596
31.067
31.0737
31.0799
31.0854
31.0903
31.0946
31.0982
31.1013
31.1038
31.1056
31.1068
31.1074
41.5131
41.502
41.4795
41.4467
41.4039
41.3521
41.2917
41.2234
41.1477
41.0651
40.9757
40.8801
40.7783
40.6708
40.5576
40.439
40.3152
40.1863
40.0525
39.9141
39.7711
39.6238
39.4723
39.3168
39.1575
38.9946
38.8281
38.6584
38.4855
38.3096
38.1309
37.9496
37.7659
37.5798
37.3917
37.2015
37.0096
36.816
36.621
36.4246
36.2271
36.0285
35.8291
35.629
35.4283
35.2272
35.0258
34.8242
34.6227
34.4212
34.22
34.0191
33.8188
33.619
33.42
33.2218
33.0246
32.8284
32.6334
32.4396
32.2472
32.0563
31.8669
31.6791
31.4931
31.3088
31.1265
30.9461
30.7677
30.5915
30.4174
30.2456
30.0761
29.9089
29.7442
29.5819
29.4221
29.2649
29.1103
28.9584
28.8091
28.6626
28.5188
28.3778
28.2396
28.1042
27.9717
27.8421
27.7154
27.5915
27.4706
27.3526
27.2376
27.1255
27.0164
26.9102
26.8069
26.7066
26.6093
26.5149
26.4234
26.3348
26.2491
26.1664
26.0865
26.0095
25.9353
25.864
25.7955
25.7297
25.6668
25.6065
25.549
25.4942
25.4421
25.3926
25.3457
25.3013
25.2596
25.2203
25.1836
25.1493
25.1174
25.0879
25.0608
25.036
25.0135
24.9932
24.9752
24.9593
24.9456
24.934
24.9245
24.9169
24.9114
24.9079
24.9063
24.9065
24.9086
24.9126
24.9183
24.9257
24.9348
24.9456
24.958
24.972
24.9876
25.0046
25.0232
25.0431
25.0645
25.0873
25.1114
25.1367
25.1634
25.1913
25.2203
25.2505
25.2819
25.3143
25.3478
25.3824
25.4179
25.4544
25.4918
25.5301
25.5693
25.6093
25.6501
25.6917
25.734
25.7771
25.8209
25.8653
25.9103
25.956
26.0022
26.049
26.0963
26.1441
26.1924
26.2412
26.2903
26.3399
26.3899
26.4402
26.4908
26.5418
26.593
26.6445
26.6963
26.7483
26.8005
26.8528
26.9054
26.958
27.0108
27.0637
27.1167
27.1698
27.2229
27.2761
27.3293
27.3825
27.4356
27.4888
27.5419
27.5949
27.6479
27.7007
27.7535
27.8062
27.8587
27.9111
27.9633
28.0153
28.0672
28.1189
28.1703
28.2216
28.2726
28.3234
28.3739
28.4242
28.4742
28.5239
28.5733
28.6224
28.6712
28.7197
28.7678
28.8157
28.8631
28.9102
28.957
29.0034
29.0494
29.095
29.1402
29.185
29.2294
29.2734
29.317
29.3601
29.4028
29.4451
29.4869
29.5283
29.5692
29.6096
29.6496
29.6891
29.7281
29.7667
29.8047
29.8423
29.8793
29.9159
29.9519
29.9875
30.0225
30.057
30.091
30.1245
30.1574
30.1898
30.2216
30.253
30.2837
30.314
30.3436
30.3728
30.4014
30.4294
30.4568
30.4837
30.51
30.5358
30.561
30.5856
30.6096
30.6331
30.656
30.6783
30.7
30.7212
30.7417
30.7617
30.7811
30.7999
30.818
30.8356
30.8527
30.8691
30.8849
30.9001
30.9147
30.9287
30.9421
30.9549
30.9671
30.9787
30.9897
31.0001
31.0099
31.0191
31.0276
31.0356
31.0429
31.0497
31.0558
31.0613
31.0662
31.0705
31.0742
31.0772
31.0797
31.0815
31.0828
31.0834
41.4595
41.4484
41.4259
41.3931
41.3502
41.2981
41.2374
41.1687
41.0924
41.0092
40.9192
40.8229
40.7205
40.6124
40.4986
40.3794
40.2551
40.1257
39.9915
39.8526
39.7093
39.5616
39.4098
39.254
39.0944
38.9312
38.7645
38.5945
38.4214
38.2453
38.0665
37.885
37.7011
37.5149
37.3266
37.1364
36.9444
36.7507
36.5556
36.3592
36.1616
35.963
35.7636
35.5635
35.3628
35.1616
34.9602
34.7587
34.5572
34.3557
34.1546
33.9538
33.7535
33.5538
33.3548
33.1567
32.9596
32.7635
32.5686
32.3749
32.1827
31.9918
31.8026
31.6149
31.429
31.245
31.0628
30.8825
30.7043
30.5282
30.3544
30.1827
30.0134
29.8464
29.6818
29.5197
29.3602
29.2032
29.0488
28.897
28.748
28.6016
28.4581
28.3173
28.1793
28.0442
27.9119
27.7825
27.656
27.5324
27.4117
27.2939
27.1791
27.0673
26.9584
26.8524
26.7494
26.6493
26.5522
26.458
26.3668
26.2784
26.193
26.1105
26.0309
25.9541
25.8802
25.8091
25.7408
25.6753
25.6125
25.5526
25.4953
25.4407
25.3888
25.3395
25.2928
25.2487
25.2072
25.1682
25.1317
25.0976
25.0659
25.0367
25.0098
24.9852
24.9629
24.9428
24.925
24.9093
24.8958
24.8844
24.8751
24.8678
24.8624
24.8591
24.8577
24.8581
24.8604
24.8645
24.8704
24.878
24.8873
24.8982
24.9108
24.925
24.9407
24.9579
24.9766
24.9967
25.0183
25.0412
25.0654
25.0909
25.1177
25.1457
25.1749
25.2053
25.2368
25.2693
25.303
25.3376
25.3732
25.4098
25.4474
25.4858
25.5251
25.5652
25.6061
25.6478
25.6903
25.7334
25.7773
25.8218
25.8669
25.9126
25.959
26.0058
26.0532
26.1011
26.1495
26.1983
26.2476
26.2972
26.3472
26.3976
26.4483
26.4993
26.5506
26.6022
26.654
26.706
26.7582
26.8107
26.8632
26.9159
26.9688
27.0217
27.0748
27.1279
27.181
27.2342
27.2875
27.3407
27.3939
27.447
27.5002
27.5532
27.6062
27.6591
27.7119
27.7646
27.8171
27.8695
27.9217
27.9738
28.0257
28.0774
28.1288
28.1801
28.2311
28.2819
28.3324
28.3827
28.4327
28.4824
28.5318
28.581
28.6298
28.6782
28.7264
28.7742
28.8217
28.8688
28.9155
28.9619
29.0079
29.0535
29.0987
29.1435
29.1879
29.2319
29.2755
29.3186
29.3613
29.4036
29.4454
29.4867
29.5276
29.5681
29.608
29.6475
29.6865
29.7251
29.7631
29.8007
29.8377
29.8742
29.9103
29.9458
29.9808
30.0153
30.0493
30.0827
30.1157
30.148
30.1799
30.2112
30.242
30.2722
30.3018
30.331
30.3595
30.3875
30.415
30.4418
30.4682
30.4939
30.5191
30.5437
30.5677
30.5912
30.6141
30.6363
30.6581
30.6792
30.6997
30.7197
30.7391
30.7578
30.776
30.7936
30.8106
30.827
30.8428
30.858
30.8726
30.8866
30.9
30.9128
30.925
30.9366
30.9476
30.958
30.9678
30.9769
30.9855
30.9934
31.0008
31.0075
31.0136
31.0192
31.0241
31.0283
31.032
31.0351
31.0375
31.0394
31.0406
31.0412
41.4185
41.4075
41.3853
41.3529
41.3104
41.2586
41.1981
41.1296
41.0533
40.9699
40.8797
40.7831
40.6804
40.5718
40.4575
40.3379
40.213
40.0832
39.9485
39.8091
39.6653
39.5172
39.3649
39.2087
39.0487
38.8851
38.718
38.5476
38.3742
38.1978
38.0186
37.8369
37.6527
37.4662
37.2777
37.0872
36.8949
36.7011
36.5057
36.3091
36.1113
35.9126
35.713
35.5127
35.3119
35.1106
34.9091
34.7074
34.5058
34.3043
34.103
33.9022
33.7018
33.5021
33.3031
33.1049
32.9078
32.7116
32.5167
32.3231
32.1308
31.94
31.7507
31.5631
31.3773
31.1932
31.0111
30.8309
30.6528
30.4767
30.3029
30.1314
29.9621
29.7952
29.6308
29.4688
29.3093
29.1524
28.9982
28.8466
28.6977
28.5515
28.408
28.2674
28.1296
27.9946
27.8625
27.7333
27.6069
27.4835
27.363
27.2454
27.1308
27.0191
26.9104
26.8047
26.7019
26.602
26.5051
26.4111
26.3201
26.232
26.1468
26.0645
25.985
25.9085
25.8348
25.7639
25.6958
25.6306
25.5681
25.5083
25.4513
25.3969
25.3452
25.2962
25.2497
25.2059
25.1646
25.1258
25.0895
25.0556
25.0242
24.9952
24.9685
24.9441
24.9221
24.9022
24.8846
24.8692
24.8559
24.8447
24.8356
24.8285
24.8234
24.8203
24.8191
24.8197
24.8222
24.8265
24.8326
24.8404
24.8499
24.8611
24.8739
24.8882
24.9041
24.9216
24.9404
24.9608
24.9825
25.0056
25.03
25.0557
25.0827
25.1108
25.1402
25.1707
25.2024
25.2351
25.2689
25.3037
25.3395
25.3763
25.414
25.4525
25.492
25.5322
25.5733
25.6151
25.6577
25.701
25.745
25.7896
25.8349
25.8808
25.9272
25.9742
26.0217
26.0697
26.1182
26.1671
26.2165
26.2662
26.3164
26.3669
26.4177
26.4688
26.5202
26.5718
26.6237
26.6759
26.7282
26.7807
26.8333
26.8861
26.9391
26.9921
27.0452
27.0984
27.1516
27.2049
27.2582
27.3115
27.3647
27.418
27.4711
27.5243
27.5773
27.6303
27.6831
27.7358
27.7884
27.8409
27.8932
27.9453
27.9972
28.0489
28.1005
28.1518
28.2028
28.2537
28.3042
28.3545
28.4046
28.4543
28.5038
28.5529
28.6018
28.6503
28.6985
28.7463
28.7938
28.8409
28.8877
28.9341
28.9801
29.0258
29.071
29.1158
29.1602
29.2043
29.2478
29.291
29.3337
29.376
29.4178
29.4592
29.5001
29.5406
29.5805
29.62
29.6591
29.6976
29.7357
29.7732
29.8103
29.8468
29.8829
29.9184
29.9534
29.988
30.0219
30.0554
30.0883
30.1207
30.1526
30.1839
30.2146
30.2449
30.2745
30.3036
30.3322
30.3602
30.3877
30.4146
30.4409
30.4666
30.4918
30.5164
30.5404
30.5639
30.5868
30.6091
30.6308
30.6519
30.6725
30.6924
30.7118
30.7306
30.7488
30.7664
30.7834
30.7998
30.8156
30.8308
30.8454
30.8594
30.8728
30.8856
30.8978
30.9094
30.9204
30.9307
30.9405
30.9497
30.9582
30.9662
30.9735
30.9803
30.9864
30.9919
30.9968
31.0011
31.0048
31.0078
31.0103
31.0121
31.0133
31.014
41.3648
41.3539
41.3318
41.2995
41.257
41.2053
41.1446
41.0758
40.9992
40.9154
40.8247
40.7275
40.6241
40.5149
40.4001
40.2798
40.1544
40.0239
39.8887
39.7488
39.6044
39.4558
39.3031
39.1464
38.986
38.822
38.6545
38.4838
38.31
38.1333
37.9539
37.7718
37.5873
37.4006
37.2119
37.0211
36.8287
36.6346
36.4391
36.2423
36.0444
35.8455
35.6458
35.4454
35.2445
35.0431
34.8415
34.6398
34.4381
34.2366
34.0353
33.8344
33.634
33.4343
33.2353
33.0372
32.84
32.6439
32.4491
32.2555
32.0632
31.8725
31.6833
31.4958
31.31
31.1261
30.944
30.764
30.586
30.4101
30.2364
30.065
29.8959
29.7292
29.5649
29.4031
29.2438
29.0871
28.933
28.7816
28.6329
28.4869
28.3437
28.2032
28.0656
27.9309
27.799
27.67
27.5439
27.4207
27.3004
27.1831
27.0687
26.9573
26.8488
26.7433
26.6408
26.5412
26.4445
26.3508
26.26
26.1722
26.0873
26.0052
25.9261
25.8498
25.7763
25.7057
25.638
25.573
25.5107
25.4512
25.3945
25.3404
25.289
25.2402
25.194
25.1504
25.1094
25.0709
25.0349
25.0013
24.9701
24.9414
24.9149
24.8909
24.869
24.8495
24.8321
24.8169
24.8039
24.793
24.7841
24.7773
24.7724
24.7695
24.7685
24.7694
24.7722
24.7767
24.783
24.7911
24.8008
24.8122
24.8252
24.8398
24.8559
24.8735
24.8926
24.9132
24.9351
24.9584
24.983
25.0089
25.036
25.0644
25.094
25.1247
25.1565
25.1894
25.2234
25.2584
25.2943
25.3313
25.3691
25.4078
25.4474
25.4878
25.5291
25.5711
25.6138
25.6572
25.7013
25.7461
25.7915
25.8375
25.8841
25.9312
25.9788
26.027
26.0756
26.1246
26.1741
26.224
26.2742
26.3248
26.3757
26.4269
26.4784
26.5301
26.5821
26.6343
26.6867
26.7393
26.7921
26.845
26.898
26.9511
27.0043
27.0575
27.1108
27.1642
27.2175
27.2708
27.3242
27.3775
27.4307
27.4839
27.537
27.59
27.6429
27.6957
27.7483
27.8008
27.8531
27.9053
27.9573
28.009
28.0606
28.1119
28.163
28.2139
28.2645
28.3148
28.3649
28.4147
28.4642
28.5133
28.5622
28.6107
28.6589
28.7068
28.7543
28.8015
28.8483
28.8947
28.9407
28.9864
29.0316
29.0765
29.1209
29.1649
29.2085
29.2517
29.2944
29.3367
29.3785
29.4199
29.4608
29.5013
29.5413
29.5808
29.6198
29.6584
29.6964
29.734
29.771
29.8076
29.8436
29.8792
29.9142
29.9487
29.9827
30.0161
30.0491
30.0815
30.1133
30.1446
30.1754
30.2056
30.2353
30.2644
30.293
30.321
30.3484
30.3753
30.4016
30.4274
30.4525
30.4771
30.5012
30.5246
30.5475
30.5698
30.5915
30.6126
30.6332
30.6531
30.6725
30.6913
30.7095
30.727
30.744
30.7604
30.7762
30.7914
30.806
30.82
30.8334
30.8462
30.8584
30.87
30.881
30.8914
30.9012
30.9103
30.9189
30.9268
30.9342
30.9409
30.947
30.9525
30.9574
30.9617
30.9654
30.9685
30.9709
30.9728
30.974
30.9746
41.3196
41.3088
41.287
41.2549
41.2127
41.1612
41.1008
41.032
40.9553
40.8713
40.7803
40.6828
40.579
40.4693
40.3539
40.2331
40.1071
39.9761
39.8402
39.6998
39.5549
39.4057
39.2524
39.0953
38.9343
38.7698
38.6019
38.4307
38.2565
38.0793
37.8995
37.717
37.5322
37.3451
37.156
36.9649
36.7722
36.5778
36.382
36.185
35.9868
35.7877
35.5877
35.3871
35.186
34.9844
34.7827
34.5808
34.3789
34.1772
33.9758
33.7748
33.5743
33.3745
33.1754
32.9772
32.78
32.5839
32.3889
32.1953
32.0031
31.8123
31.6232
31.4356
31.2499
31.066
30.884
30.704
30.526
30.3502
30.1766
30.0052
29.8362
29.6696
29.5054
29.3437
29.1846
29.028
28.8741
28.7228
28.5742
28.4284
28.2853
28.1451
28.0077
27.8731
27.7414
27.6126
27.4866
27.3637
27.2436
27.1265
27.0124
26.9012
26.7929
26.6877
26.5853
26.486
26.3896
26.2961
26.2056
26.118
26.0333
25.9516
25.8727
25.7967
25.7235
25.6532
25.5856
25.5209
25.459
25.3998
25.3433
25.2895
25.2383
25.1898
25.144
25.1007
25.0599
25.0217
24.9859
24.9526
24.9218
24.8933
24.8671
24.8433
24.8218
24.8025
24.7854
24.7705
24.7578
24.7471
24.7385
24.732
24.7274
24.7248
24.7241
24.7252
24.7282
24.733
24.7396
24.7479
24.7579
24.7695
24.7828
24.7976
24.814
24.8319
24.8512
24.872
24.8941
24.9177
24.9425
24.9686
24.996
25.0246
25.0544
25.0853
25.1174
25.1505
25.1847
25.2199
25.256
25.2932
25.3312
25.3701
25.4099
25.4505
25.4919
25.5341
25.577
25.6206
25.6649
25.7099
25.7554
25.8016
25.8483
25.8956
25.9434
25.9917
26.0404
26.0896
26.1393
26.1893
26.2396
26.2904
26.3414
26.3927
26.4444
26.4962
26.5484
26.6007
26.6532
26.7059
26.7588
26.8118
26.8649
26.9181
26.9714
27.0248
27.0782
27.1316
27.185
27.2385
27.2919
27.3453
27.3986
27.4519
27.5051
27.5582
27.6111
27.664
27.7167
27.7693
27.8217
27.8739
27.9259
27.9778
28.0294
28.0808
28.132
28.1829
28.2335
28.2839
28.3341
28.3839
28.4334
28.4827
28.5316
28.5801
28.6284
28.6763
28.7239
28.7711
28.8179
28.8644
28.9104
28.9561
29.0014
29.0463
29.0907
29.1348
29.1784
29.2216
29.2644
29.3067
29.3485
29.3899
29.4309
29.4714
29.5114
29.5509
29.59
29.6285
29.6666
29.7042
29.7413
29.7779
29.8139
29.8495
29.8845
29.9191
29.9531
29.9865
30.0195
30.0519
30.0837
30.115
30.1458
30.1761
30.2057
30.2349
30.2634
30.2915
30.3189
30.3458
30.3721
30.3979
30.4231
30.4477
30.4717
30.4952
30.5181
30.5404
30.5621
30.5832
30.6038
30.6237
30.6431
30.6619
30.6801
30.6976
30.7146
30.7311
30.7469
30.7621
30.7767
30.7907
30.8041
30.8169
30.8291
30.8407
30.8517
30.862
30.8718
30.881
30.8895
30.8975
30.9048
30.9116
30.9177
30.9232
30.9281
30.9324
30.9361
30.9391
30.9416
30.9434
30.9446
30.9452
41.2656
41.2548
41.2331
41.2012
41.1591
41.1076
41.047
40.9781
40.9011
40.8168
40.7253
40.6272
40.5229
40.4125
40.2965
40.175
40.0483
39.9167
39.7802
39.6391
39.4936
39.3438
39.19
39.0322
38.8708
38.7057
38.5373
38.3657
38.191
38.0134
37.8331
37.6503
37.4651
37.2776
37.0881
36.8968
36.7037
36.509
36.313
36.1157
35.9173
35.7179
35.5177
35.3169
35.1156
34.9139
34.712
34.5099
34.3079
34.1061
33.9046
33.7035
33.5029
33.303
33.1039
32.9057
32.7084
32.5123
32.3173
32.1237
31.9315
31.7407
31.5516
31.3641
31.1784
30.9946
30.8127
30.6327
30.4549
30.2792
30.1057
29.9344
29.7656
29.5991
29.435
29.2735
29.1145
28.9581
28.8043
28.6532
28.5049
28.3592
28.2164
28.0763
27.9391
27.8048
27.6733
27.5447
27.4191
27.2963
27.1765
27.0597
26.9458
26.8349
26.7269
26.6219
26.5199
26.4208
26.3247
26.2315
26.1413
26.054
25.9696
25.8881
25.8096
25.7338
25.661
25.591
25.5238
25.4593
25.3977
25.3388
25.2826
25.2292
25.1783
25.1302
25.0846
25.0416
25.0012
24.9633
24.9278
24.8949
24.8643
24.8361
24.8103
24.7868
24.7656
24.7466
24.7299
24.7153
24.7028
24.6925
24.6842
24.6779
24.6736
24.6713
24.6709
24.6724
24.6757
24.6808
24.6876
24.6962
24.7065
24.7184
24.7319
24.747
24.7637
24.7818
24.8014
24.8224
24.8449
24.8686
24.8937
24.9201
24.9477
24.9766
25.0066
25.0378
25.07
25.1034
25.1378
25.1732
25.2096
25.2469
25.2852
25.3243
25.3643
25.4051
25.4467