/*--------------------------------*- C++ -*----------------------------------*\
| =========                 |                                                 |
| \\      /  F ield         | OpenFOAM: The Open Source CFD Toolbox           |
|  \\    /   O peration     | Version:  2212                                  |
|   \\  /    A nd           | Website:  www.openfoam.com                      |
|    \\/     M anipulation  |                                                 |
\*---------------------------------------------------------------------------*/
FoamFile
{
    version     2.0;
    format      ascii;
    arch        "LSB;label=32;scalar=64";
    class       surfaceScalarField;
    location    "530";
    object      phi;
}
// * * * * * * * * * * * * * * * * * * * * * * * * * * * * * * * * * * * * * //

dimensions      [1 0 -1 0 0 0 0];

oriented        oriented;

internalField   nonuniform List<scalar> 
408640
(
-1792.4
1794.35
-3547.98
1756.17
-5230.25
1682.85
-6817.33
1587.65
-8302.56
1485.78
-9691.12
1389.12
-10996.1
1305.58
-12233.9
1238.39
-13420.8
1187.45
-14570.7
1150.51
-15694.6
1124.53
-16800.4
1106.43
-17893.4
1093.57
-18976.7
1083.92
-20052.1
1076.01
-21120.3
1068.86
-22181.5
1061.85
-23235.6
1054.63
-24281.9
1046.99
-25320.2
1038.88
-26349.9
1030.26
-27370.4
1021.17
-28381.5
1011.63
-29382.6
1001.69
-30373.4
991.393
-31353.6
980.768
-32322.9
969.851
-33281
958.671
-34227.6
947.254
-35162.7
935.62
-36085.9
923.789
-36997.2
911.778
-37896.2
899.601
-38782.9
887.271
-39657.2
874.801
-40518.9
862.2
-41367.8
849.479
-42204
836.648
-43027.2
823.714
-43837.3
810.687
-44634.4
797.573
-45418.3
784.38
-46188.9
771.115
-46946.2
757.784
-47690.1
744.395
-48420.6
730.953
-49137.6
717.464
-49841.1
703.935
-50531
690.37
-51207.3
676.776
-51870.1
663.158
-52519.1
649.522
-53154.6
635.871
-53776.4
622.213
-54384.5
608.55
-54979
594.89
-55559.8
581.235
-56127
567.591
-56680.6
553.962
-57220.6
540.354
-57746.9
526.769
-58259.8
513.214
-58759.1
499.691
-59245
486.206
-59717.4
472.761
-60176.4
459.362
-60622.1
446.012
-61054.4
432.714
-61473.6
419.473
-61879.6
406.292
-62272.4
393.175
-62652.3
380.126
-63019.1
367.147
-63373.1
354.242
-63714.2
341.414
-64042.6
328.666
-64358.3
316.001
-64661.5
303.423
-64952.1
290.934
-65230.4
278.537
-65496.4
266.234
-65750.2
254.029
-65991.9
241.923
-66221.6
229.919
-66439.4
218.019
-66645.4
206.227
-66839.7
194.542
-67022.5
182.969
-67193.8
171.508
-67353.8
160.163
-67502.5
148.933
-67640.2
137.822
-67766.8
126.83
-67882.6
115.959
-67987.7
105.212
-68082.1
94.5878
-68166.1
84.0894
-68239.7
73.7175
-68303
63.4731
-68356.3
53.3573
-68399.5
43.371
-68432.9
33.5152
-68456.6
23.7904
-68470.7
14.1976
-68475.4
4.73714
-68470.7
-4.59028
-68456.9
-13.7842
-68433.9
-22.8443
-68402.1
-31.7703
-68361.5
-40.5618
-68312.2
-49.2187
-68254.4
-57.7409
-68188.3
-66.1284
-68113.9
-74.3811
-68031.4
-82.4992
-67940.9
-90.4829
-67842.5
-98.3322
-67736.5
-106.048
-67622.9
-113.629
-67501.8
-121.078
-67373.4
-128.393
-67237.9
-135.576
-67095.3
-142.628
-66945.8
-149.548
-66789.5
-156.338
-66626.5
-162.997
-66457
-169.528
-66281.2
-175.93
-66099
-182.205
-65910.8
-188.353
-65716.5
-194.375
-65516.3
-200.273
-65310.3
-206.046
-65098.7
-211.697
-64881.6
-217.226
-64659.1
-222.634
-64431.3
-227.922
-64198.3
-233.092
-63960.3
-238.145
-63717.4
-243.081
-63469.6
-247.902
-63217.1
-252.61
-62960.1
-257.205
-62698.6
-261.689
-62432.7
-266.063
-62162.5
-270.328
-61888.2
-274.486
-61609.8
-278.538
-61327.5
-282.485
-61041.4
-286.329
-60751.5
-290.071
-60458
-293.713
-60161
-297.255
-59860.5
-300.699
-59556.7
-304.048
-59249.6
-307.301
-58939.3
-310.461
-58626.1
-313.528
-58309.8
-316.505
-57990.6
-319.393
-57668.7
-322.193
-57344
-324.906
-57016.8
-327.534
-56687
-330.079
-56354.7
-332.542
-56020
-334.923
-55683.1
-337.226
-55343.9
-339.45
-55002.6
-341.598
-54659.2
-343.671
-54313.9
-345.67
-53966.6
-347.597
-53617.4
-349.453
-53266.5
-351.239
-52913.8
-352.957
-52559.5
-354.608
-52203.7
-356.194
-51846.3
-357.715
-51487.4
-359.173
-51127.2
-360.57
-50765.6
-361.906
-50402.8
-363.184
-50038.7
-364.403
-49673.5
-365.567
-49307.2
-366.675
-48939.8
-367.729
-48571.5
-368.73
-48202.1
-369.68
-47831.9
-370.58
-47460.9
-371.43
-47089
-372.233
-46716.4
-372.989
-46343.1
-373.699
-45969.1
-374.365
-45594.5
-374.987
-45219.3
-375.567
-44843.6
-376.106
-44467.4
-376.605
-44090.7
-377.065
-43713.6
-377.486
-43336.2
-377.871
-42958.4
-378.221
-42580.2
-378.535
-42201.8
-378.815
-41823.2
-379.062
-41444.3
-379.278
-41065.3
-379.462
-40686.1
-379.616
-40306.8
-379.742
-39927.4
-379.839
-39547.9
-379.908
-39168.4
-379.951
-38788.8
-379.969
-38409.3
-379.962
-38029.8
-379.931
-37650.4
-379.876
-37271
-379.8
-36891.7
-379.702
-36512.6
-379.583
-36133.6
-379.445
-35754.8
-379.287
-35376.1
-379.111
-34997.6
-378.917
-34619.4
-378.706
-34241.3
-378.479
-33863.6
-378.236
-33486
-377.978
-33108.8
-377.706
-32731.8
-377.42
-32355.2
-377.122
-31978.8
-376.811
-31602.8
-376.488
-31227.1
-376.154
-30851.8
-375.81
-30476.8
-375.456
-30102.1
-375.092
-29727.9
-374.719
-29354
-374.339
-28980.5
-373.95
-28607.4
-373.554
-28234.8
-373.152
-27862.5
-372.743
-27490.6
-372.329
-27119.2
-371.909
-26748.2
-371.484
-26377.6
-371.056
-26007.4
-370.623
-25637.7
-370.187
-25268.5
-369.748
-24899.6
-369.306
-24531.2
-368.862
-24163.3
-368.417
-23795.8
-367.97
-23428.8
-367.522
-23062.2
-367.074
-22696
-366.625
-22330.3
-366.177
-21965.1
-365.729
-21600.3
-365.281
-21235.9
-364.835
-20872
-364.391
-20508.5
-363.948
-20145.5
-363.507
-19782.9
-363.069
-19420.8
-362.634
-19059
-362.201
-18697.7
-361.772
-18336.9
-361.346
-17976.4
-360.925
-17616.4
-360.507
-17256.8
-360.093
-16897.6
-359.685
-16538.8
-359.281
-16180.4
-358.882
-15822.4
-358.488
-15464.8
-358.1
-15107.5
-357.718
-14750.7
-357.341
-14394.2
-356.971
-14038.1
-356.607
-13682.3
-356.249
-13326.9
-355.898
-12971.8
-355.554
-12617.1
-355.217
-12262.6
-354.888
-11908.6
-354.565
-11554.8
-354.251
-11201.3
-353.944
-10848.2
-353.644
-10495.3
-353.353
-10142.7
-353.07
-9790.38
-352.795
-9438.34
-352.528
-9086.54
-352.27
-8735
-352.021
-8383.7
-351.78
-8032.63
-351.548
-7681.79
-351.325
-7331.15
-351.111
-6980.73
-350.906
-6630.49
-350.711
-6280.45
-350.525
-5930.58
-350.348
-5580.88
-350.181
-5231.33
-350.024
-4881.93
-349.877
-4532.67
-349.739
-4183.54
-349.612
-3834.52
-349.495
-3485.61
-349.389
-3136.79
-349.293
-2788.06
-349.208
-2439.41
-349.134
-2090.81
-349.071
-1742.27
-349.018
-1393.77
-348.976
-1045.31
-348.945
-696.861
-348.923
-348.428
-348.911
-348.905
-1766.41
3561.36
-3498.41
3488.75
-5163.65
3348.64
-6741.71
3166.26
-8225.23
2969.86
-9617.8
2782.25
-10930.4
2618.78
-12177.5
2486.09
-13373.9
2384.4
-14532.6
2309.78
-15664
2256.55
-16775.8
2218.92
-17873.5
2191.84
-18960.3
2171.32
-20038.2
2154.5
-21108.1
2139.4
-22170.4
2124.77
-23225
2109.84
-24271.6
2094.23
-25309.9
2077.73
-26339.3
2060.31
-27359.5
2041.98
-28370.1
2022.8
-29370.7
2002.84
-30360.9
1982.17
-31340.4
1960.88
-32309
1939
-33266.3
1916.62
-34212.3
1893.76
-35146.6
1870.47
-36069
1846.8
-36979.5
1822.76
-37877.7
1798.4
-38763.6
1773.74
-39637.1
1748.79
-40497.9
1723.59
-41346.1
1698.14
-42181.4
1672.48
-43003.8
1646.61
-43813.2
1620.56
-44609.4
1594.33
-45392.5
1567.95
-46162.3
1541.42
-46918.8
1514.76
-47661.9
1487.99
-48391.6
1461.11
-49107.8
1434.14
-49810.5
1407.08
-50499.6
1379.96
-51175.2
1352.78
-51837.1
1325.55
-52485.5
1298.28
-53120.1
1270.98
-53741.2
1243.67
-54348.6
1216.36
-54942.3
1189.04
-55522.4
1161.74
-56088.9
1134.46
-56641.7
1107.21
-57181
1080
-57706.7
1052.84
-58218.8
1025.74
-58717.5
998.699
-59202.7
971.736
-59674.4
944.856
-60132.8
918.066
-60577.8
891.374
-61009.5
864.788
-61428
838.316
-61833.4
811.963
-62225.6
785.739
-62604.9
759.649
-62971.1
733.701
-63324.5
707.9
-63665
682.254
-63992.9
656.768
-64308
631.449
-64610.7
606.303
-64900.8
581.335
-65178.6
556.55
-65444
531.955
-65697.3
507.554
-65938.5
483.353
-66167.7
459.356
-66385.1
435.567
-66590.6
411.992
-66784.5
388.634
-66966.8
365.498
-67137.7
342.587
-67297.3
319.906
-67445.6
297.457
-67582.9
275.245
-67709.1
253.272
-67824.6
231.542
-67929.3
210.057
-68023.3
188.821
-68106.9
167.834
-68180.2
147.101
-68243.2
126.623
-68296.1
106.402
-68339.1
86.4405
-68372.2
66.7394
-68395.6
47.3006
-68409.5
28.1255
-68413.9
9.21519
-68408.9
-9.4291
-68394.8
-27.8065
-68371.7
-45.9162
-68339.7
-63.7576
-68298.8
-81.3303
-68249.4
-98.6337
-68191.4
-115.668
-68125.1
-132.433
-68050.5
-148.928
-67967.8
-165.154
-67877.2
-181.111
-67778.7
-196.8
-67672.5
-212.221
-67558.8
-227.374
-67437.6
-242.261
-67309.2
-256.882
-67173.5
-271.239
-67030.8
-285.332
-66881.3
-299.163
-66724.9
-312.733
-66561.9
-326.043
-66392.4
-339.095
-66216.5
-351.891
-66034.4
-364.431
-65846.1
-376.718
-65651.8
-388.754
-65451.6
-400.539
-65245.7
-412.078
-65034.1
-423.371
-64817
-434.42
-64594.5
-445.227
-64366.8
-455.796
-64133.8
-466.128
-63895.9
-476.225
-63653
-486.089
-63405.3
-495.724
-63153
-505.132
-62896
-514.314
-62634.6
-523.274
-62368.8
-532.014
-62098.8
-540.538
-61824.6
-548.846
-61546.3
-556.943
-61264.2
-564.83
-60978.2
-572.511
-60688.5
-579.988
-60395.1
-587.265
-60098.2
-594.343
-59797.9
-601.225
-59494.3
-607.915
-59187.4
-614.416
-58877.4
-620.729
-58564.3
-626.858
-58248.2
-632.806
-57929.3
-638.575
-57607.5
-644.169
-57283.1
-649.59
-56956.1
-654.841
-56626.5
-659.925
-56294.4
-664.845
-55960
-669.603
-55623.3
-674.203
-55284.4
-678.647
-54943.4
-682.938
-54600.2
-687.079
-54255.1
-691.073
-53908.1
-694.922
-53559.2
-698.629
-53208.6
-702.197
-52856.2
-705.628
-52502.2
-708.926
-52146.7
-712.093
-51789.6
-715.131
-51431
-718.044
-51071.1
-720.833
-50709.8
-723.502
-50347.3
-726.054
-49983.6
-728.489
-49618.7
-730.812
-49252.7
-733.025
-48885.6
-735.13
-48517.6
-737.13
-48148.6
-739.026
-47778.7
-740.822
-47408
-742.52
-47036.5
-744.122
-46664.2
-745.631
-46291.3
-747.049
-45917.6
-748.377
-45543.4
-749.619
-45168.6
-750.777
-44793.2
-751.852
-44417.4
-752.848
-44041.1
-753.765
-43664.3
-754.606
-43287.2
-755.374
-42909.8
-756.07
-42532
-756.696
-42154
-757.255
-41775.7
-757.748
-41397.3
-758.176
-41018.6
-758.543
-40639.8
-758.85
-40260.9
-759.099
-39881.8
-759.291
-39502.7
-759.429
-39123.6
-759.514
-38744.5
-759.547
-38365.3
-759.531
-37986.2
-759.468
-37607.2
-759.358
-37228.2
-759.204
-36849.3
-759.006
-36470.6
-758.768
-36092
-758.49
-35713.6
-758.173
-35335.3
-757.819
-34957.2
-757.43
-34579.4
-757.008
-34201.8
-756.552
-33824.4
-756.066
-33447.3
-755.549
-33070.4
-755.004
-32693.9
-754.432
-32317.6
-753.834
-31941.7
-753.212
-31566.1
-752.566
-31190.8
-751.897
-30815.8
-751.208
-30441.3
-750.499
-30067
-749.771
-29693.2
-749.025
-29319.7
-748.263
-28946.7
-747.486
-28574
-746.694
-28201.7
-745.888
-27829.9
-745.07
-27458.4
-744.241
-27087.4
-743.401
-26716.8
-742.552
-26346.7
-741.694
-25976.9
-740.828
-25607.6
-739.956
-25238.8
-739.078
-24870.4
-738.194
-24502.4
-737.306
-24134.9
-736.415
-23767.8
-735.521
-23401.2
-734.625
-23035
-733.728
-22669.3
-732.831
-22304
-731.934
-21939.2
-731.038
-21574.8
-730.143
-21210.8
-729.251
-20847.3
-728.362
-20484.3
-727.476
-20121.7
-726.595
-19759.5
-725.718
-19397.8
-724.847
-19036.5
-723.982
-18675.6
-723.124
-18315.2
-722.273
-17955.1
-721.429
-17595.5
-720.594
-17236.3
-719.767
-16877.5
-718.949
-16519.2
-718.141
-16161.2
-717.344
-15803.6
-716.556
-15446.4
-715.78
-15089.6
-715.015
-14733.1
-714.263
-14377.1
-713.522
-14021.4
-712.794
-13666
-712.079
-13311
-711.377
-12956.4
-710.689
-12602
-710.016
-12248
-709.356
-11894.4
-708.712
-11541
-708.082
-11188
-707.468
-10835.2
-706.87
-10482.8
-706.287
-10130.6
-705.721
-9778.71
-705.171
-9427.08
-704.638
-9075.7
-704.122
-8724.58
-703.623
-8373.7
-703.142
-8023.04
-702.678
-7672.62
-702.232
-7322.4
-701.804
-6972.39
-701.395
-6622.57
-701.004
-6272.95
-700.632
-5923.49
-700.278
-5574.21
-699.945
-5225.08
-699.63
-4876.1
-699.335
-4527.25
-699.061
-4178.54
-698.806
-3829.94
-698.573
-3481.44
-698.36
-3133.04
-698.169
-2784.73
-697.999
-2436.49
-697.85
-2088.32
-697.724
-1740.19
-697.619
-1392.11
-697.535
-1044.06
-697.472
-696.032
-697.429
-348.015
-697.405
-697.397
-1737.06
5298.99
-3442.79
5195.04
-5088.55
4994.96
-6655.66
4733.92
-8136.46
4451.21
-9532.99
4179.35
-10854.1
3940.45
-12112.1
3744.64
-13319.9
3592.83
-14489.4
3479.92
-15630.4
3398.17
-16750.3
3339.43
-17854.4
3296.5
-18946.1
3263.66
-20027.7
3236.67
-21100.2
3212.6
-22164.4
3189.53
-23220.2
3166.29
-24267.6
3142.21
-25306.3
3116.98
-26335.8
3090.48
-27355.9
3062.7
-28366.3
3033.72
-29366.5
3003.62
-30356.2
2972.5
-31335.2
2940.46
-32303.2
2907.58
-33260
2873.94
-34205.3
2839.6
-35138.9
2804.64
-36060.6
2769.09
-36970.3
2733.02
-37867.8
2696.45
-38753
2659.44
-39625.6
2622.01
-40485.7
2584.19
-41333.1
2546.02
-42167.6
2507.52
-42989.2
2468.72
-43797.8
2429.63
-44593.2
2390.29
-45375.5
2350.72
-46144.5
2310.93
-46900.2
2270.94
-47642.5
2230.78
-48371.4
2190.47
-49086.8
2150.01
-49788.7
2109.44
-50477.1
2068.76
-51151.9
2027.99
-51813
1987.15
-52460.6
1946.26
-53094.5
1905.33
-53714.8
1864.37
-54321.4
1823.4
-54914.4
1782.44
-55493.7
1741.49
-56059.5
1700.58
-56611.6
1659.72
-57150.1
1618.91
-57675.1
1578.18
-58186.5
1537.54
-58684.4
1496.99
-59168.9
1456.56
-59639.9
1416.25
-60097.6
1376.08
-60542
1336.05
-60973
1296.19
-61390.9
1256.49
-61795.6
1216.97
-62187.2
1177.65
-62565.7
1138.53
-62931.3
1099.62
-63284.1
1060.93
-63624
1022.47
-63951.2
984.257
-64265.8
946.292
-64567.8
908.586
-64857.4
871.148
-65134.6
833.985
-65399.5
797.107
-65652.2
760.52
-65892.8
724.232
-66121.5
688.25
-66338.3
652.582
-66543.3
617.234
-66736.7
582.212
-66918.5
547.522
-67088.9
513.171
-67248
479.164
-67395.9
445.506
-67532.6
412.203
-67658.5
379.259
-67773.4
346.679
-67877.7
314.467
-67971.4
282.627
-68054.5
251.163
-68127.4
220.079
-68190
189.377
-68242.6
159.061
-68285.1
129.134
-68317.9
99.5978
-68340.9
70.4551
-68354.4
41.7078
-68358.5
13.3579
-68353.2
-14.5931
-68338.8
-42.1438
-68315.4
-69.293
-68283.1
-96.0397
-68241.9
-122.383
-68192.2
-148.323
-68134
-173.859
-68067.4
-198.991
-67992.6
-223.719
-67909.7
-248.043
-67818.8
-271.963
-67720.1
-295.481
-67613.7
-318.597
-67499.8
-341.313
-67378.4
-363.629
-67249.8
-385.546
-67114
-407.066
-66971.2
-428.192
-66821.4
-448.923
-66665
-469.264
-66501.8
-489.215
-66332.2
-508.778
-66156.2
-527.957
-65974
-546.754
-65785.6
-565.171
-65591.2
-583.21
-65391
-600.875
-65185
-618.169
-64973.3
-635.095
-64756.2
-651.656
-64533.7
-667.854
-64305.9
-683.694
-64073
-699.178
-63835
-714.311
-63592.2
-729.096
-63344.5
-743.535
-63092.1
-757.634
-62835.2
-771.396
-62573.8
-784.824
-62308.1
-797.923
-62038.1
-810.695
-61763.9
-823.147
-61485.8
-835.28
-61203.7
-847.1
-60917.8
-858.61
-60628.2
-869.815
-60334.9
-880.719
-60038.1
-891.325
-59737.9
-901.639
-59434.4
-911.663
-59127.7
-921.403
-58817.7
-930.863
-58504.8
-940.047
-58188.9
-948.959
-57870.1
-957.603
-57548.5
-965.985
-57224.3
-974.107
-56897.4
-981.975
-56568
-989.592
-56236.1
-996.962
-55901.9
-1004.09
-55565.4
-1010.98
-55226.7
-1017.64
-54885.9
-1024.07
-54543
-1030.27
-54198.1
-1036.25
-53851.3
-1042.02
-53502.6
-1047.57
-53152.2
-1052.92
-52800.1
-1058.06
-52446.4
-1063
-52091
-1067.74
-51734.2
-1072.29
-51375.9
-1076.65
-51016.3
-1080.83
-50655.3
-1084.83
-50293
-1088.65
-49929.6
-1092.3
-49564.9
-1095.77
-49199.2
-1099.09
-48832.5
-1102.24
-48464.7
-1105.23
-48096.1
-1108.07
-47726.5
-1110.76
-47356.1
-1113.3
-46984.9
-1115.7
-46612.9
-1117.96
-46240.3
-1120.08
-45867
-1122.07
-45493
-1123.93
-45118.5
-1125.66
-44743.5
-1127.27
-44368
-1128.76
-43992
-1130.13
-43615.7
-1131.39
-43238.9
-1132.53
-42861.8
-1133.57
-42484.4
-1134.51
-42106.7
-1135.34
-41728.8
-1136.08
-41350.7
-1136.72
-40972.4
-1137.27
-40593.9
-1137.72
-40215.3
-1138.09
-39836.7
-1138.38
-39458
-1138.58
-39079.2
-1138.71
-38700.4
-1138.75
-38321.7
-1138.73
-37942.9
-1138.63
-37564.3
-1138.46
-37185.7
-1138.23
-36807.2
-1137.93
-36428.8
-1137.57
-36050.6
-1137.15
-35672.6
-1136.67
-35294.7
-1136.14
-34917
-1135.56
-34539.5
-1134.92
-34162.3
-1134.23
-33785.3
-1133.5
-33408.6
-1132.73
-33032.2
-1131.91
-32656
-1131.05
-32280.2
-1130.15
-31904.6
-1129.21
-31529.4
-1128.24
-31154.5
-1127.24
-30780
-1126.2
-30405.8
-1125.14
-30032
-1124.05
-29658.6
-1122.93
-29285.5
-1121.78
-28912.8
-1120.61
-28540.6
-1119.43
-28168.7
-1118.22
-27797.3
-1116.99
-27426.2
-1115.74
-27055.6
-1114.48
-26685.4
-1113.21
-26315.7
-1111.92
-25946.4
-1110.62
-25577.5
-1109.31
-25209
-1107.99
-24841
-1106.67
-24473.5
-1105.34
-24106.4
-1104
-23739.7
-1102.66
-23373.5
-1101.31
-23007.7
-1099.97
-22642.4
-1098.62
-22277.6
-1097.27
-21913.1
-1095.93
-21549.2
-1094.59
-21185.7
-1093.25
-20822.6
-1091.92
-20460
-1090.59
-20097.8
-1089.26
-19736
-1087.95
-19374.7
-1086.64
-19013.8
-1085.35
-18653.4
-1084.06
-18293.3
-1082.78
-17933.7
-1081.51
-17574.5
-1080.26
-17215.8
-1079.02
-16857.4
-1077.79
-16499.4
-1076.58
-16141.9
-1075.39
-15784.7
-1074.21
-15427.9
-1073.04
-15071.5
-1071.89
-14715.5
-1070.76
-14359.8
-1069.65
-14004.6
-1068.56
-13649.6
-1067.49
-13295
-1066.44
-12940.8
-1065.4
-12586.9
-1064.39
-12233.3
-1063.4
-11880.1
-1062.44
-11527.2
-1061.49
-11174.5
-1060.57
-10822.2
-1059.68
-10470.2
-1058.8
-10118.4
-1057.95
-9766.95
-1057.13
-9415.74
-1056.33
-9064.79
-1055.55
-8714.08
-1054.81
-8363.62
-1054.08
-8013.39
-1053.39
-7663.38
-1052.72
-7313.58
-1052.08
-6963.99
-1051.46
-6614.6
-1050.88
-6265.39
-1050.32
-5916.36
-1049.79
-5567.49
-1049.29
-5218.78
-1048.82
-4870.22
-1048.37
-4521.8
-1047.96
-4173.5
-1047.58
-3825.32
-1047.23
-3477.25
-1046.91
-3129.27
-1046.62
-2781.38
-1046.37
-2433.56
-1046.15
-2085.8
-1045.96
-1738.1
-1045.8
-1390.43
-1045.67
-1042.8
-1045.58
-695.193
-1045.52
-347.595
-1045.48
-1045.47
-1699.33
6998.88
-3371.28
6867.54
-4991.87
6616.09
-6544.62
6287.22
-8021.64
5928.79
-9423.16
5581.42
-10755.3
5273.17
-12027.7
5017.59
-13251
4816.73
-14435.4
4664.97
-15589.8
4553.13
-16721
4471.27
-17834.3
4410.42
-18933.4
4363.31
-20020.5
4324.47
-21097.3
4290.03
-22164.6
4257.4
-23222.7
4224.97
-24271.6
4191.76
-25311.3
4157.29
-26341.6
4121.32
-27362.1
4083.81
-28372.6
4044.8
-29372.7
4004.38
-30362.3
3962.67
-31341
3919.78
-32308.7
3875.8
-33265
3830.83
-34209.8
3784.97
-35142.9
3738.27
-36064.1
3690.82
-36973.2
3642.67
-37870.1
3593.88
-38754.6
3544.49
-39626.6
3494.56
-40486
3444.11
-41332.6
3393.2
-42166.4
3341.85
-42987.3
3290.1
-43795.1
3237.97
-44589.9
3185.51
-45371.4
3132.74
-46139.7
3079.68
-46894.6
3026.36
-47636.2
2972.82
-48364.3
2919.06
-49078.9
2865.12
-49780
2811.02
-50467.6
2756.78
-51141.6
2702.43
-51802
2647.98
-52448.8
2593.46
-53081.9
2538.89
-53701.4
2484.28
-54307.2
2429.67
-54899.5
2375.05
-55478
2320.47
-56043
2265.93
-56594.3
2211.45
-57132.1
2157.06
-57656.3
2102.76
-58167
2048.57
-58664.1
1994.53
-59147.8
1940.62
-59618.1
1886.89
-60075
1833.34
-60518.6
1779.98
-60948.9
1726.84
-61366.1
1673.92
-61770
1621.24
-62160.9
1568.83
-62538.7
1516.68
-62903.6
1464.81
-63255.6
1413.24
-63594.9
1361.98
-63921.4
1311.04
-64235.2
1260.44
-64536.6
1210.18
-64825.4
1160.27
-65101.9
1110.74
-65366.2
1061.59
-65618.2
1012.82
-65858.2
964.451
-66086.2
916.493
-66302.4
868.952
-66506.8
821.838
-66699.5
775.16
-66880.7
728.925
-67050.5
683.141
-67209
637.817
-67356.2
592.958
-67492.4
548.572
-67617.7
504.666
-67732.1
461.245
-67835.8
418.314
-67928.9
375.88
-68011.5
333.948
-68083.8
292.521
-68145.9
251.605
-68198
211.204
-68240
171.32
-68272.3
131.959
-68294.9
93.1216
-68307.9
54.812
-68311.5
17.0322
-68305.8
-20.2155
-68290.9
-56.9294
-68267
-93.1079
-68234.3
-128.75
-68192.7
-163.854
-68142.6
-198.42
-68084
-232.448
-68017
-265.936
-67941.8
-298.886
-67858.5
-331.297
-67767.3
-363.171
-67668.3
-394.508
-67561.5
-425.309
-67447.3
-455.576
-67325.6
-485.31
-67196.7
-514.512
-67060.6
-543.186
-66917.5
-571.333
-66767.5
-598.955
-66610.7
-626.055
-66447.4
-652.637
-66277.5
-678.702
-66101.3
-704.254
-65918.8
-729.296
-65730.2
-753.832
-65535.6
-777.865
-65335.2
-801.4
-65129
-824.439
-64917.2
-846.987
-64699.9
-869.049
-64477.3
-890.628
-64249.4
-911.729
-64016.3
-932.356
-63778.2
-952.515
-63535.2
-972.209
-63287.5
-991.444
-63035
-1010.22
-62778
-1028.56
-62516.6
-1046.44
-62250.8
-1063.89
-61980.7
-1080.9
-61706.6
-1097.49
-61428.4
-1113.65
-61146.3
-1129.39
-60860.3
-1144.72
-60570.7
-1159.65
-60277.5
-1174.17
-59980.7
-1188.29
-59680.5
-1202.03
-59377
-1215.38
-59070.3
-1228.35
-58760.5
-1240.95
-58447.6
-1253.18
-58131.7
-1265.05
-57813
-1276.56
-57491.5
-1287.72
-57167.3
-1298.53
-56840.6
-1309.01
-56511.3
-1319.15
-56179.5
-1328.97
-55845.4
-1338.46
-55509.1
-1347.64
-55170.5
-1356.5
-54829.8
-1365.06
-54487
-1373.32
-54142.3
-1381.28
-53795.7
-1388.96
-53447.2
-1396.35
-53096.9
-1403.46
-52745
-1410.3
-52391.4
-1416.88
-52036.3
-1423.19
-51679.7
-1429.25
-51321.6
-1435.06
-50962.2
-1440.62
-50601.4
-1445.94
-50239.4
-1451.02
-49876.1
-1455.87
-49511.7
-1460.5
-49146.3
-1464.91
-48779.8
-1469.1
-48412.3
-1473.09
-48043.8
-1476.86
-47674.5
-1480.44
-47304.4
-1483.82
-46933.5
-1487.01
-46561.8
-1490.01
-46189.4
-1492.83
-45816.4
-1495.48
-45442.7
-1497.95
-45068.5
-1500.25
-44693.8
-1502.39
-44318.6
-1504.36
-43942.9
-1506.19
-43566.9
-1507.86
-43190.4
-1509.38
-42813.6
-1510.76
-42436.6
-1512
-42059.2
-1513.11
-41681.6
-1514.08
-41303.8
-1514.93
-40925.9
-1515.65
-40547.7
-1516.26
-40169.5
-1516.75
-39791.2
-1517.12
-39412.8
-1517.39
-39034.4
-1517.55
-38656
-1517.61
-38277.6
-1517.57
-37899.2
-1517.43
-37520.9
-1517.21
-37142.7
-1516.89
-36764.5
-1516.49
-36386.6
-1516
-36008.7
-1515.44
-35631
-1514.8
-35253.5
-1514.09
-34876.2
-1513.3
-34499.1
-1512.45
-34122.3
-1511.54
-33745.7
-1510.56
-33369.4
-1509.52
-32993.3
-1508.42
-32617.5
-1507.27
-32242.1
-1506.07
-31866.9
-1504.82
-31492.1
-1503.53
-31117.6
-1502.19
-30743.5
-1500.8
-30369.7
-1499.38
-29996.3
-1497.92
-29623.2
-1496.43
-29250.6
-1494.9
-28878.3
-1493.34
-28506.5
-1491.75
-28135
-1490.14
-27764
-1488.5
-27393.4
-1486.84
-27023.1
-1485.16
-26653.4
-1483.45
-26284
-1481.74
-25915.1
-1480
-25546.7
-1478.26
-25178.6
-1476.5
-24811
-1474.73
-24443.9
-1472.95
-24077.2
-1471.17
-23711
-1469.38
-23345.2
-1467.58
-22979.8
-1465.79
-22614.9
-1463.99
-22250.5
-1462.2
-21886.5
-1460.4
-21523
-1458.61
-21159.9
-1456.83
-20797.2
-1455.05
-20435
-1453.27
-20073.2
-1451.51
-19711.9
-1449.76
-19351
-1448.01
-18990.5
-1446.28
-18630.5
-1444.56
-18270.9
-1442.86
-17911.7
-1441.17
-17553
-1439.5
-17194.6
-1437.85
-16836.7
-1436.21
-16479.2
-1434.6
-16122
-1433
-15765.3
-1431.43
-15408.9
-1429.87
-15053
-1428.34
-14697.4
-1426.84
-14342.1
-1425.35
-13987.3
-1423.9
-13632.8
-1422.47
-13278.6
-1421.06
-12924.8
-1419.69
-12571.4
-1418.34
-12218.2
-1417.02
-11865.4
-1415.73
-11512.9
-1414.47
-11160.7
-1413.25
-10808.8
-1412.05
-10457.2
-1410.88
-10105.9
-1409.75
-9754.84
-1408.65
-9404.06
-1407.59
-9053.54
-1406.55
-8703.27
-1405.56
-8353.24
-1404.59
-8003.44
-1403.66
-7653.86
-1402.77
-7304.5
-1401.92
-6955.34
-1401.1
-6606.38
-1400.32
-6257.6
-1399.57
-5909
-1398.87
-5560.57
-1398.2
-5212.29
-1397.57
-4864.17
-1396.98
-4516.17
-1396.43
-4168.31
-1395.92
-3820.56
-1395.45
-3472.92
-1395.03
-3125.38
-1394.65
-2777.92
-1394.31
-2430.53
-1394.01
-2083.21
-1393.76
-1735.94
-1393.55
-1388.71
-1393.38
-1041.51
-1393.25
-694.332
-1393.17
-347.166
-1393.12
-1393.11
-1667.58
8667
-3311.16
8511.67
-4910.34
8215.83
-6450.52
7827.94
-7923.8
7402.63
-9329.08
6987.26
-10670.4
6615.06
-11955.1
6302.89
-13192
6054.21
-14389.8
5863.39
-15556.4
5720.32
-16698.3
5613.72
-17820.4
5533.19
-18926.6
5470.11
-20019.4
5417.9
-21100.6
5371.81
-22171.2
5328.59
-23231.7
5286.12
-24282.5
5243.13
-25323.5
5198.89
-26354.6
5153.06
-27375.7
5105.5
-28386.6
5056.23
-29386.9
5005.32
-30376.5
4952.86
-31355.2
4899
-32322.6
4843.82
-33278.7
4787.45
-34223.1
4729.99
-35155.8
4671.51
-36076.5
4612.11
-36985.2
4551.84
-37881.5
4490.79
-38765.5
4429
-39636.9
4366.53
-40495.7
4303.44
-41341.8
4239.76
-42174.9
4175.54
-42995.2
4110.82
-43802.3
4045.65
-44596.4
3980.05
-45377.2
3914.07
-46144.8
3847.73
-46899
3781.08
-47639.9
3714.13
-48367.3
3646.93
-49081.2
3579.5
-49781.6
3511.87
-50468.4
3444.07
-51141.6
3376.13
-51801.3
3308.06
-52447.3
3239.91
-53079.7
3171.7
-53698.4
3103.44
-54303.5
3035.17
-54895
2966.91
-55472.8
2898.68
-56036.9
2830.51
-56587.5
2762.42
-57124.5
2694.43
-57647.9
2626.56
-58157.8
2558.84
-58654.2
2491.29
-59137.2
2423.92
-59606.7
2356.76
-60062.8
2289.83
-60505.7
2223.14
-60935.2
2156.72
-61351.6
2090.59
-61754.8
2024.75
-62144.9
1959.24
-62521.9
1894.07
-62886.1
1829.25
-63237.3
1764.8
-63575.8
1700.74
-63901.6
1637.08
-64214.7
1573.84
-64515.3
1511.03
-64803.4
1448.66
-65079.2
1386.76
-65342.7
1325.34
-65594
1264.39
-65833.3
1203.95
-66060.6
1144.02
-66276.1
1084.61
-66479.7
1025.74
-66671.8
967.411
-66852.3
909.637
-67021.4
852.427
-67179.2
795.791
-67325.8
739.739
-67461.3
684.277
-67585.9
629.415
-67699.7
575.159
-67802.7
521.518
-67895.2
468.497
-67977.2
416.104
-68048.9
364.343
-68110.4
313.221
-68161.8
262.742
-68203.3
212.911
-68234.9
163.733
-68256.9
115.21
-68269.4
67.3471
-68272.4
20.1466
-68266.2
-26.3888
-68250.8
-72.2567
-68226.3
-117.455
-68193
-161.983
-68151
-205.838
-68100.4
-249.021
-68041.2
-291.53
-67973.8
-333.365
-67898.1
-374.527
-67814.4
-415.015
-67722.7
-454.832
-67623.2
-493.977
-67516.1
-532.453
-67401.4
-570.261
-67279.3
-607.402
-67150
-643.88
-67013.5
-679.696
-66870
-714.854
-66719.6
-749.356
-66562.5
-783.205
-66398.8
-816.406
-66228.6
-848.962
-66052.1
-880.876
-65869.3
-912.153
-65680.4
-942.798
-65485.5
-972.814
-65284.8
-1002.21
-65078.3
-1030.98
-64866.3
-1059.14
-64648.7
-1086.69
-64425.8
-1113.64
-64197.7
-1139.99
-63964.4
-1165.75
-63726.1
-1190.93
-63483
-1215.52
-63235
-1239.54
-62982.4
-1262.99
-62725.2
-1285.88
-62463.6
-1308.22
-62197.7
-1330
-61927.5
-1351.24
-61653.2
-1371.95
-61374.9
-1392.13
-61092.7
-1411.79
-60806.7
-1430.93
-60517
-1449.56
-60223.6
-1467.69
-59926.8
-1485.33
-59626.6
-1502.47
-59323
-1519.14
-59016.3
-1535.33
-58706.4
-1551.06
-58393.5
-1566.33
-58077.6
-1581.14
-57758.9
-1595.51
-57437.4
-1609.44
-57113.3
-1622.94
-56786.5
-1636.02
-56457.3
-1648.68
-56125.6
-1660.93
-55791.5
-1672.78
-55455.2
-1684.23
-55116.7
-1695.29
-54776.1
-1705.97
-54433.4
-1716.27
-54088.8
-1726.21
-53742.2
-1735.79
-53393.9
-1745.01
-53043.8
-1753.89
-52691.9
-1762.43
-52338.5
-1770.63
-51983.5
-1778.51
-51627
-1786.06
-51269.1
-1793.3
-50909.8
-1800.24
-50549.2
-1806.88
-50187.4
-1813.22
-49824.3
-1819.27
-49460.1
-1825.04
-49094.8
-1830.54
-48728.5
-1835.77
-48361.2
-1840.73
-47993
-1845.44
-47623.9
-1849.9
-47254
-1854.11
-46883.3
-1858.09
-46511.9
-1861.83
-46139.7
-1865.34
-45766.9
-1868.64
-45393.6
-1871.71
-45019.6
-1874.58
-44645.1
-1877.24
-44270.2
-1879.71
-43894.8
-1881.97
-43519
-1884.05
-43142.8
-1885.95
-42766.4
-1887.66
-42389.6
-1889.21
-42012.5
-1890.58
-41635.2
-1891.79
-41257.7
-1892.84
-40880
-1893.74
-40502.2
-1894.49
-40124.3
-1895.09
-39746.3
-1895.55
-39368.2
-1895.87
-38990.2
-1896.07
-38612.1
-1896.13
-38234
-1896.08
-37856
-1895.9
-37478
-1895.61
-37100.1
-1895.21
-36722.3
-1894.7
-36344.7
-1894.09
-35967.2
-1893.38
-35589.9
-1892.58
-35212.7
-1891.68
-34835.8
-1890.69
-34459
-1889.62
-34082.6
-1888.47
-33706.3
-1887.24
-33330.4
-1885.94
-32954.7
-1884.57
-32579.3
-1883.13
-32204.2
-1881.62
-31829.4
-1880.06
-31455
-1878.43
-31080.9
-1876.75
-30707.1
-1875.02
-30333.7
-1873.24
-29960.7
-1871.41
-29588
-1869.54
-29215.8
-1867.62
-28843.9
-1865.67
-28472.4
-1863.68
-28101.4
-1861.66
-27730.7
-1859.61
-27360.5
-1857.53
-26990.7
-1855.43
-26621.3
-1853.3
-26252.4
-1851.15
-25883.9
-1848.98
-25515.8
-1846.79
-25148.2
-1844.59
-24781
-1842.38
-24414.3
-1840.15
-24048
-1837.92
-23682.2
-1835.68
-23316.8
-1833.44
-22951.9
-1831.19
-22587.4
-1828.95
-22223.4
-1826.7
-21859.8
-1824.46
-21496.7
-1822.22
-21134
-1819.98
-20771.8
-1817.76
-20410
-1815.54
-20048.6
-1813.33
-19687.7
-1811.14
-19327.2
-1808.96
-18967.2
-1806.8
-18607.6
-1804.65
-18248.4
-1802.52
-17889.7
-1800.41
-17531.3
-1798.32
-17173.4
-1796.25
-16815.9
-1794.2
-16458.8
-1792.18
-16102.1
-1790.19
-15745.8
-1788.22
-15389.8
-1786.28
-15034.3
-1784.36
-14679.1
-1782.48
-14324.3
-1780.63
-13969.9
-1778.81
-13615.9
-1777.02
-13262.1
-1775.26
-12908.8
-1773.54
-12555.7
-1771.86
-12203
-1770.21
-11850.6
-1768.6
-11498.6
-1767.02
-11146.8
-1765.49
-10795.3
-1763.99
-10444.2
-1762.53
-10093.3
-1761.12
-9742.66
-1759.74
-9392.32
-1758.41
-9042.23
-1757.12
-8692.39
-1755.87
-8342.79
-1754.67
-7993.43
-1753.51
-7644.29
-1752.39
-7295.36
-1751.32
-6946.63
-1750.3
-6598.11
-1749.32
-6249.76
-1748.39
-5901.6
-1747.51
-5553.6
-1746.67
-5205.76
-1745.89
-4858.07
-1745.15
-4510.51
-1744.46
-4163.08
-1743.83
-3815.77
-1743.24
-3468.56
-1742.71
-3121.45
-1742.23
-2774.43
-1741.81
-2427.48
-1741.44
-2080.59
-1741.12
-1733.76
-1740.86
-1386.96
-1740.65
-1040.2
-1740.49
-693.46
-1740.39
-346.728
-1740.33
-1740.32
-1636.9
10304.4
-3253.13
10128.4
-4831.53
9794.76
-6359.19
9356.15
-7828.43
8872.41
-9236.98
8396.37
-10587
7965.68
-11883.9
7600.32
-13134.4
7305.34
-14346
7075.53
-15525.4
6900.32
-16678.6
6767.52
-17810.4
6665.62
-18924.6
6584.89
-20023.8
6517.78
-21110.1
6458.71
-22184.7
6403.77
-23248.3
6350.36
-24301.4
6296.86
-25344.2
6242.29
-26376.7
6186.15
-27398.8
6128.19
-28410.4
6068.37
-29411.2
6006.73
-30401.1
5943.36
-31379.9
5878.37
-32347.4
5811.89
-33303.4
5744.02
-34247.7
5674.87
-35180.2
5604.54
-36100.6
5533.12
-37008.9
5460.69
-37904.9
5387.33
-38788.5
5313.1
-39659.5
5238.06
-40517.8
5162.28
-41363.3
5085.81
-42196
5008.7
-43015.7
4931
-43822.3
4852.76
-44615.7
4774.01
-45396
4694.8
-46162.9
4615.16
-46916.5
4535.15
-47656.7
4454.8
-48383.4
4374.14
-49096.6
4293.2
-49796.4
4212.03
-50482.5
4130.65
-51155
4049.11
-51813.9
3967.42
-52459.2
3885.63
-53090.9
3803.76
-53708.9
3721.85
-54313.2
3639.92
-54903.9
3558
-55480.9
3476.12
-56044.3
3394.31
-56594.1
3312.6
-57130.3
3231.01
-57653
3149.57
-58162.1
3068.31
-58657.7
2987.24
-59139.8
2906.41
-59608.5
2825.82
-60063.8
2745.5
-60505.8
2665.49
-60934.6
2585.79
-61350.1
2506.43
-61752.5
2427.44
-62141.7
2348.83
-62518
2270.63
-62881.3
2192.86
-63231.8
2115.53
-63569.4
2038.67
-63894.3
1962.29
-64206.6
1886.41
-64506.4
1811.05
-64793.7
1736.23
-65068.7