/*--------------------------------*- C++ -*----------------------------------*\
| =========                 |                                                 |
| \\      /  F ield         | OpenFOAM: The Open Source CFD Toolbox           |
|  \\    /   O peration     | Version:  2212                                  |
|   \\  /    A nd           | Website:  www.openfoam.com                      |
|    \\/     M anipulation  |                                                 |
\*---------------------------------------------------------------------------*/
FoamFile
{
    version     2.0;
    format      ascii;
    arch        "LSB;label=32;scalar=64";
    class       volScalarField;
    location    "190";
    object      p_rgh;
}
// * * * * * * * * * * * * * * * * * * * * * * * * * * * * * * * * * * * * * //

dimensions      [1 -1 -2 0 0 0 0];

internalField   nonuniform List<scalar> 
204800
(
-2.91842
-2.91597
-2.91122
-2.90389
-2.89419
-2.882
-2.86741
-2.85038
-2.83095
-2.80913
-2.78494
-2.75839
-2.72951
-2.6983
-2.66477
-2.62891
-2.59074
-2.55023
-2.50738
-2.46216
-2.41456
-2.36453
-2.31204
-2.25705
-2.19952
-2.13939
-2.07661
-2.01112
-1.94288
-1.87181
-1.79787
-1.72099
-1.64111
-1.55819
-1.47217
-1.383
-1.29064
-1.19504
-1.09616
-0.99397
-0.88844
-0.779544
-0.667258
-0.551566
-0.432454
-0.309913
-0.183941
-0.0545359
0.0782967
0.214549
0.354207
0.497255
0.643671
0.793431
0.946507
1.10287
1.26247
1.42528
1.59126
1.76036
1.93253
2.10771
2.28586
2.46691
2.65081
2.83749
3.02688
3.21893
3.41355
3.61068
3.81025
4.01218
4.21639
4.42282
4.63137
4.84197
5.05454
5.26901
5.48528
5.70327
5.92291
6.14411
6.36678
6.59086
6.81624
7.04286
7.27062
7.49945
7.72927
7.96
8.19155
8.42385
8.65681
8.89038
9.12446
9.35898
9.59387
9.82906
10.0645
10.3
10.5357
10.7714
11.007
11.2425
11.4779
11.713
11.9478
12.1822
12.4163
12.6499
12.8829
13.1154
13.3473
13.5785
13.809
14.0387
14.2676
14.4956
14.7228
14.949
15.1742
15.3985
15.6217
15.8438
16.0648
16.2847
16.5033
16.7208
16.9371
17.1521
17.3658
17.5782
17.7893
17.999
18.2074
18.4144
18.62
18.8241
19.0269
19.2281
19.428
19.6263
19.8231
20.0185
20.2124
20.4047
20.5955
20.7848
20.9725
21.1587
21.3433
21.5264
21.7079
21.8879
22.0663
22.2432
22.4185
22.5922
22.7643
22.9349
23.1039
23.2714
23.4373
23.6016
23.7644
23.9257
24.0854
24.2435
24.4001
24.5552
24.7088
24.8608
25.0113
25.1603
25.3078
25.4538
25.5983
25.7413
25.8828
26.0229
26.1615
26.2987
26.4344
26.5686
26.7015
26.8329
26.9629
27.0914
27.2186
27.3444
27.4688
27.5919
27.7136
27.8339
27.9529
28.0705
28.1868
28.3018
28.4155
28.5279
28.639
28.7488
28.8573
28.9646
29.0706
29.1754
29.2789
29.3812
29.4823
29.5822
29.6808
29.7783
29.8746
29.9697
30.0636
30.1564
30.248
30.3385
30.4278
30.516
30.6031
30.6891
30.774
30.8578
30.9404
31.022
31.1026
31.1821
31.2605
31.3378
31.4141
31.4894
31.5637
31.6369
31.7091
31.7803
31.8505
31.9197
31.9879
32.0551
32.1213
32.1866
32.2509
32.3143
32.3766
32.4381
32.4986
32.5582
32.6168
32.6745
32.7313
32.7871
32.8421
32.8962
32.9493
33.0016
33.0529
33.1034
33.153
33.2017
33.2495
33.2965
33.3426
33.3878
33.4322
33.4757
33.5184
33.5602
33.6012
33.6413
33.6806
33.7191
33.7567
33.7936
33.8295
33.8647
33.899
33.9326
33.9653
33.9972
34.0283
34.0585
34.088
34.1167
34.1446
34.1716
34.1979
34.2234
34.2481
34.272
34.2952
34.3175
34.339
34.3598
34.3798
34.399
34.4174
34.4351
34.4519
34.468
34.4834
34.4979
34.5117
34.5247
34.5369
34.5484
34.5591
34.5691
34.5782
34.5866
34.5943
34.6011
34.6072
34.6126
34.6172
34.621
34.624
34.6263
34.6278
34.6286
-2.87474
-2.87265
-2.86829
-2.86173
-2.85297
-2.84199
-2.82882
-2.81342
-2.79581
-2.77596
-2.75388
-2.72953
-2.7029
-2.67397
-2.64273
-2.60913
-2.57316
-2.53478
-2.49397
-2.45068
-2.40487
-2.35651
-2.30554
-2.25193
-2.19564
-2.1366
-2.07478
-2.01013
-1.9426
-1.87215
-1.79873
-1.72228
-1.64278
-1.56017
-1.47441
-1.38547
-1.2933
-1.19787
-1.09915
-0.997108
-0.891718
-0.782957
-0.670808
-0.555253
-0.436283
-0.31389
-0.18807
-0.058824
0.0738426
0.209921
0.349398
0.492258
0.638478
0.788035
0.940899
1.09704
1.25642
1.419
1.58474
1.75359
1.9255
2.10043
2.27831
2.45909
2.6427
2.8291
3.0182
3.20995
3.40427
3.60109
3.80034
4.00195
4.20584
4.41193
4.62015
4.83041
5.04264
5.25675
5.47267
5.69031
5.90958
6.13041
6.35272
6.57642
6.80143
7.02766
7.25504
7.48349
7.71292
7.94325
8.1744
8.4063
8.63887
8.87203
9.10571
9.33982
9.57431
9.80908
10.0441
10.2792
10.5145
10.7497
10.985
11.2201
11.455
11.6897
11.9241
12.1581
12.3917
12.6249
12.8575
13.0896
13.3211
13.5518
13.7819
14.0112
14.2397
14.4673
14.694
14.9199
15.1447
15.3685
15.5913
15.813
16.0336
16.253
16.4713
16.6884
16.9042
17.1188
17.3321
17.5442
17.7548
17.9642
18.1722
18.3788
18.584
18.7877
18.9901
19.191
19.3904
19.5884
19.7849
19.9798
20.1733
20.3653
20.5557
20.7446
20.932
21.1178
21.3021
21.4848
21.666
21.8456
22.0237
22.2002
22.3752
22.5485
22.7203
22.8906
23.0593
23.2264
23.392
23.556
23.7185
23.8794
24.0388
24.1966
24.3529
24.5077
24.661
24.8127
24.9629
25.1116
25.2588
25.4045
25.5487
25.6915
25.8327
25.9725
26.1108
26.2477
26.3831
26.5171
26.6497
26.7808
26.9106
27.0389
27.1658
27.2914
27.4156
27.5384
27.6598
27.7799
27.8986
28.016
28.1321
28.2469
28.3603
28.4725
28.5834
28.693
28.8013
28.9083
29.0141
29.1187
29.222
29.3241
29.425
29.5246
29.6231
29.7204
29.8164
29.9114
30.0051
30.0977
30.1891
30.2794
30.3686
30.4566
30.5435
30.6293
30.714
30.7976
30.8801
30.9616
31.042
31.1213
31.1995
31.2767
31.3529
31.428
31.5021
31.5752
31.6472
31.7183
31.7883
31.8574
31.9254
31.9925
32.0586
32.1238
32.1879
32.2512
32.3134
32.3747
32.4351
32.4946
32.5531
32.6107
32.6673
32.7231
32.7779
32.8319
32.8849
32.9371
32.9883
33.0387
33.0882
33.1368
33.1845
33.2314
33.2774
33.3225
33.3668
33.4103
33.4528
33.4946
33.5355
33.5755
33.6148
33.6531
33.6907
33.7274
33.7633
33.7984
33.8327
33.8662
33.8988
33.9306
33.9617
33.9919
34.0213
34.0499
34.0777
34.1048
34.131
34.1564
34.1811
34.2049
34.228
34.2503
34.2718
34.2925
34.3125
34.3316
34.35
34.3676
34.3845
34.4005
34.4158
34.4304
34.4441
34.4571
34.4693
34.4808
34.4914
34.5014
34.5105
34.5189
34.5265
34.5334
34.5395
34.5448
34.5494
34.5532
34.5562
34.5585
34.56
34.5608
-2.88727
-2.88512
-2.88079
-2.87425
-2.86555
-2.85462
-2.84153
-2.82621
-2.8087
-2.78894
-2.76695
-2.74269
-2.71616
-2.68731
-2.65614
-2.6226
-2.58669
-2.54835
-2.50755
-2.46426
-2.41844
-2.37004
-2.31902
-2.26534
-2.20895
-2.14981
-2.08787
-2.02308
-1.9554
-1.88478
-1.81119
-1.73456
-1.65487
-1.57207
-1.48612
-1.39697
-1.30461
-1.20898
-1.11006
-1.00783
-0.902245
-0.793297
-0.680964
-0.56523
-0.446084
-0.323519
-0.197532
-0.0681241
0.064701
0.200934
0.340562
0.483568
0.629932
0.779628
0.932629
1.0889
1.24841
1.41112
1.57698
1.74595
1.91799
2.09303
2.27102
2.45191
2.63563
2.82213
3.01134
3.20318
3.3976
3.59452
3.79386
3.99556
4.19954
4.40572
4.61402
4.82436
5.03666
5.25085
5.46684
5.68455
5.90389
6.12479
6.34716
6.57092
6.79598
7.02227
7.24971
7.4782
7.70768
7.93806
8.16926
8.4012
8.63381
8.867
9.10071
9.33486
9.56937
9.80418
10.0392
10.2744
10.5096
10.7449
10.9801
11.2153
11.4502
11.6849
11.9193
12.1533
12.387
12.6201
12.8528
13.0848
13.3163
13.5471
13.7771
14.0064
14.2349
14.4625
14.6892
14.915
15.1398
15.3636
15.5864
15.8081
16.0286
16.2481
16.4663
16.6833
16.8992
17.1137
17.327
17.539
17.7496
17.959
18.1669
18.3735
18.5786
18.7824
18.9847
19.1855
19.3849
19.5828
19.7793
19.9742
20.1676
20.3595
20.5499
20.7388
20.9261
21.1119
21.2961
21.4788
21.6599
21.8395
22.0175
22.194
22.3689
22.5422
22.714
22.8842
23.0528
23.2199
23.3854
23.5494
23.7118
23.8727
24.032
24.1898
24.346
24.5008
24.6539
24.8056
24.9558
25.1044
25.2516
25.3972
25.5414
25.6841
25.8253
25.965
26.1033
26.2401
26.3755
26.5094
26.6419
26.773
26.9027
27.031
27.1579
27.2834
27.4075
27.5302
27.6516
27.7717
27.8904
28.0077
28.1237
28.2385
28.3519
28.464
28.5748
28.6843
28.7926
28.8996
29.0054
29.1099
29.2132
29.3152
29.416
29.5156
29.6141
29.7113
29.8073
29.9022
29.9959
30.0884
30.1798
30.2701
30.3592
30.4472
30.5341
30.6198
30.7045
30.788
30.8705
30.9519
31.0323
31.1115
31.1897
31.2669
31.343
31.4181
31.4922
31.5652
31.6372
31.7082
31.7783
31.8473
31.9153
31.9824
32.0484
32.1135
32.1777
32.2409
32.3031
32.3644
32.4247
32.4841
32.5426
32.6002
32.6568
32.7125
32.7674
32.8213
32.8743
32.9264
32.9776
33.028
33.0774
33.126
33.1737
33.2206
33.2666
33.3117
33.356
33.3994
33.4419
33.4836
33.5245
33.5646
33.6038
33.6421
33.6797
33.7164
33.7523
33.7873
33.8216
33.855
33.8876
33.9195
33.9505
33.9807
34.0101
34.0387
34.0665
34.0935
34.1197
34.1451
34.1698
34.1936
34.2167
34.2389
34.2604
34.2812
34.3011
34.3202
34.3386
34.3562
34.3731
34.3891
34.4044
34.4189
34.4327
34.4456
34.4578
34.4693
34.48
34.4899
34.499
34.5074
34.515
34.5219
34.528
34.5333
34.5378
34.5417
34.5447
34.547
34.5485
34.5493
-2.87167
-2.8697
-2.86569
-2.85966
-2.85162
-2.84153
-2.8294
-2.81519
-2.79889
-2.78046
-2.75988
-2.73709
-2.71206
-2.68475
-2.65511
-2.6231
-2.58867
-2.55177
-2.51234
-2.47035
-2.42573
-2.37845
-2.32844
-2.27567
-2.22008
-2.16164
-2.10029
-2.03601
-1.96874
-1.89844
-1.82509
-1.74865
-1.66907
-1.58634
-1.50041
-1.41125
-1.31884
-1.22314
-1.12414
-1.02181
-0.91613
-0.807076
-0.694636
-0.578798
-0.459552
-0.336893
-0.210818
-0.0813289
0.0515691
0.187867
0.327551
0.470605
0.617007
0.766734
0.919757
1.07604
1.23556
1.39827
1.56412
1.73307
1.90508
2.08009
2.25804
2.43888
2.62255
2.80899
2.99813
3.1899
3.38423
3.58106
3.78032
3.98191
4.18579
4.39185
4.60003
4.81025
5.02242
5.23648
5.45232
5.66988
5.88908
6.10982
6.33202
6.55561
6.78051
7.00662
7.23387
7.46218
7.69146
7.92165
8.15264
8.38438
8.61678
8.84976
9.08325
9.31718
9.55147
9.78604
10.0208
10.2558
10.4908
10.7258
10.9608
11.1957
11.4304
11.6648
11.8989
12.1327
12.3661
12.599
12.8314
13.0632
13.2943
13.5248
13.7546
13.9836
14.2118
14.4391
14.6656
14.8911
15.1156
15.3391
15.5616
15.783
16.0033
16.2224
16.4403
16.6571
16.8726
17.0869
17.2999
17.5116
17.7219
17.9309
18.1386
18.3449
18.5497
18.7532
18.9552
19.1557
19.3548
19.5525
19.7486
19.9432
20.1364
20.328
20.5181
20.7067
20.8937
21.0792
21.2632
21.4456
21.6264
21.8057
21.9834
22.1596
22.3342
22.5073
22.6787
22.8487
23.017
23.1838
23.3491
23.5128
23.675
23.8356
23.9946
24.1521
24.3081
24.4626
24.6155
24.7669
24.9169
25.0652
25.2121
25.3575
25.5015
25.6439
25.7849
25.9244
26.0624
26.199
26.3341
26.4678
26.6001
26.731
26.8604
26.9885
27.1151
27.2404
27.3643
27.4868
27.608
27.7278
27.8463
27.9635
28.0793
28.1938
28.307
28.4189
28.5295
28.6389
28.747
28.8538
28.9593
29.0636
29.1667
29.2686
29.3692
29.4687
29.5669
29.664
29.7598
29.8545
29.948
30.0404
30.1316
30.2217
30.3107
30.3985
30.4852
30.5708
30.6553
30.7387
30.8211
30.9023
30.9825
31.0616
31.1397
31.2167
31.2927
31.3676
31.4415
31.5144
31.5863
31.6572
31.7271
31.796
31.8639
31.9308
31.9967
32.0617
32.1257
32.1888
32.2509
32.3121
32.3723
32.4316
32.49
32.5475
32.604
32.6596
32.7143
32.7681
32.821
32.8731
32.9242
32.9744
33.0238
33.0723
33.1199
33.1667
33.2126
33.2576
33.3018
33.3451
33.3876
33.4292
33.47
33.51
33.5491
33.5874
33.6249
33.6615
33.6973
33.7323
33.7665
33.7999
33.8325
33.8642
33.8952
33.9253
33.9547
33.9832
34.011
34.0379
34.0641
34.0895
34.1141
34.1379
34.1609
34.1831
34.2046
34.2252
34.2451
34.2642
34.2826
34.3002
34.317
34.333
34.3482
34.3627
34.3764
34.3894
34.4016
34.413
34.4237
34.4335
34.4427
34.451
34.4586
34.4655
34.4716
34.4769
34.4814
34.4852
34.4883
34.4906
34.4921
34.4928
-2.89386
-2.89189
-2.88792
-2.88194
-2.87398
-2.86398
-2.85196
-2.83787
-2.82171
-2.80342
-2.78298
-2.76035
-2.73548
-2.70833
-2.67885
-2.647
-2.61271
-2.57595
-2.53665
-2.49476
-2.45023
-2.40301
-2.35305
-2.30029
-2.24469
-2.18621
-2.12479
-2.0604
-1.99299
-1.92253
-1.84899
-1.77232
-1.6925
-1.60949
-1.52327
-1.4338
-1.34107
-1.24504
-1.14569
-1.04301
-0.936975
-0.827566
-0.714771
-0.598579
-0.478983
-0.355979
-0.229563
-0.0997393
0.0334872
0.170107
0.310107
0.453471
0.600177
0.750201
0.903515
1.06009
1.21988
1.38286
1.54898
1.7182
1.89046
2.06572
2.24393
2.42501
2.60892
2.79559
2.98496
3.17695
3.37151
3.56855
3.76801
3.96982
4.17389
4.38015
4.58852
4.79893
5.01129
5.22552
5.44154
5.65927
5.87862
6.09952
6.32189
6.54563
6.77067
6.99692
7.22431
7.45275
7.68216
7.91246
8.14358
8.37543
8.60794
8.84102
9.07461
9.30863
9.54301
9.77767
10.0125
10.2476
10.4827
10.7178
10.9528
11.1877
11.4225
11.6569
11.8911
12.125
12.3584
12.5913
12.8237
13.0555
13.2867
13.5172
13.747
13.976
14.2042
14.4316
14.658
14.8835
15.108
15.3315
15.554
15.7754
15.9956
16.2147
16.4327
16.6494
16.8649
17.0791
17.2921
17.5037
17.714
17.923
18.1306
18.3368
18.5416
18.745
18.947
19.1475
19.3465
19.5441
19.7401
19.9347
20.1278
20.3194
20.5094
20.6979
20.8849
21.0703
21.2542
21.4365
21.6173
21.7965
21.9741
22.1502
22.3247
22.4977
22.6691
22.839
23.0073
23.174
23.3392
23.5028
23.6648
23.8254
23.9843
24.1418
24.2977
24.452
24.6049
24.7562
24.906
25.0544
25.2012
25.3465
25.4903
25.6327
25.7735
25.9129
26.0509
26.1874
26.3224
26.4561
26.5883
26.719
26.8484
26.9764
27.1029
27.2281
27.3519
27.4744
27.5955
27.7152
27.8336
27.9507
28.0664
28.1808
28.294
28.4058
28.5163
28.6256
28.7336
28.8403
28.9458
29.05
29.1531
29.2548
29.3554
29.4548
29.5529
29.6499
29.7457
29.8403
29.9338
30.0261
30.1172
30.2072
30.2961
30.3838
30.4705
30.556
30.6405
30.7238
30.8061
30.8872
30.9674
31.0464
31.1244
31.2014
31.2773
31.3522
31.426
31.4989
31.5707
31.6415
31.7113
31.7802
31.848
31.9149
31.9808
32.0457
32.1097
32.1727
32.2347
32.2958
32.356
32.4153
32.4736
32.531
32.5875
32.643
32.6977
32.7515
32.8043
32.8563
32.9074
32.9576
33.0069
33.0554
33.103
33.1497
33.1955
33.2405
33.2846
33.3279
33.3704
33.412
33.4527
33.4927
33.5317
33.57
33.6074
33.644
33.6798
33.7148
33.749
33.7823
33.8148
33.8466
33.8775
33.9076
33.9369
33.9654
33.9932
34.0201
34.0462
34.0716
34.0962
34.1199
34.1429
34.1651
34.1866
34.2072
34.2271
34.2462
34.2645
34.2821
34.2989
34.3149
34.3301
34.3446
34.3583
34.3712
34.3834
34.3948
34.4055
34.4153
34.4245
34.4328
34.4404
34.4473
34.4533
34.4586
34.4632
34.467
34.47
34.4723
34.4738
34.4746
-2.89733
-2.89547
-2.89174
-2.88613
-2.87863
-2.86922
-2.85788
-2.84458
-2.82928
-2.81193
-2.7925
-2.77092
-2.74714
-2.72111
-2.69276
-2.66203
-2.62887
-2.59319
-2.55495
-2.51408
-2.47051
-2.42418
-2.37504
-2.32303
-2.2681
-2.2102
-2.14928
-2.08531
-2.01824
-1.94803
-1.87466
-1.79809
-1.7183
-1.63526
-1.54896
-1.45935
-1.36644
-1.2702
-1.17061
-1.06766
-0.961336
-0.851629
-0.738527
-0.622025
-0.502117
-0.378802
-0.25208
-0.121955
0.011566
0.148472
0.28875
0.432382
0.579348
0.729623
0.883178
1.03998
1.2
1.36319
1.52952
1.69893
1.87138
2.04682
2.2252
2.40644
2.59051
2.77733
2.96683
3.15896
3.35364
3.5508
3.75037
3.95228
4.15645
4.36279
4.57125
4.78173
4.99415
5.20844
5.42451
5.64229
5.86168
6.08261
6.305
6.52876
6.75381
6.98007
7.20746
7.43589
7.66528
7.89557
8.12665
8.35847
8.59094
8.82398
9.05751
9.29147
9.52579
9.76037
9.99517
10.2301
10.4651
10.7001
10.9351
11.1699
11.4045
11.6389
11.873
12.1067
12.3399
12.5727
12.805
13.0367
13.2677
13.4981
13.7277
13.9566
14.1846
14.4118
14.638
14.8633
15.0877
15.311
15.5333
15.7545
15.9745
16.1934
16.4112
16.6277
16.843
17.057
17.2698
17.4812
17.6913
17.9001
18.1074
18.3134
18.518
18.7212
18.9229
19.1232
19.322
19.5194
19.7152
19.9096
20.1024
20.2937
20.4835
20.6718
20.8586
21.0437
21.2274
21.4095
21.59
21.769
21.9464
22.1223
22.2966
22.4693
22.6405
22.8101
22.9782
23.1447
23.3096
23.473
23.6348
23.7951
23.9539
24.1111
24.2667
24.4209
24.5735
24.7246
24.8742
25.0223
25.1689
25.314
25.4576
25.5997
25.7404
25.8796
26.0173
26.1536
26.2884
26.4218
26.5538
26.6844
26.8136
26.9413
27.0677
27.1927
27.3163
27.4385
27.5594
27.679
27.7972
27.914
28.0296
28.1438
28.2567
28.3684
28.4787
28.5878
28.6956
28.8022
28.9075
29.0115
29.1144
29.216
29.3164
29.4156
29.5136
29.6104
29.706
29.8004
29.8937
29.9859
30.0769
30.1667
30.2554
30.343
30.4295
30.5149
30.5992
30.6824
30.7645
30.8455
30.9255
31.0044
31.0823
31.1591
31.2349
31.3096
31.3833
31.456
31.5277
31.5984
31.6681
31.7368
31.8046
31.8713
31.9371
32.0019
32.0657
32.1286
32.1906
32.2516
32.3116
32.3708
32.429
32.4863
32.5427
32.5981
32.6527
32.7064
32.7591
32.811
32.862
32.9121
32.9613
33.0097
33.0572
33.1038
33.1496
33.1945
33.2386
33.2818
33.3241
33.3656
33.4063
33.4462
33.4852
33.5234
33.5607
33.5973
33.633
33.6679
33.702
33.7353
33.7678
33.7994
33.8303
33.8603
33.8896
33.9181
33.9458
33.9726
33.9987
34.024
34.0485
34.0723
34.0952
34.1174
34.1388
34.1594
34.1793
34.1983
34.2166
34.2341
34.2509
34.2669
34.2821
34.2965
34.3102
34.3231
34.3353
34.3467
34.3573
34.3671
34.3762
34.3846
34.3922
34.399
34.405
34.4104
34.4149
34.4187
34.4217
34.424
34.4255
34.4263
-2.92586
-2.92402
-2.92034
-2.9148
-2.9074
-2.89811
-2.88692
-2.87377
-2.85866
-2.84151
-2.82229
-2.80095
-2.77743
-2.75166
-2.72359
-2.69315
-2.66028
-2.62491
-2.58697
-2.54638
-2.5031
-2.45704
-2.40815
-2.35637
-2.30163
-2.24389
-2.1831
-2.1192
-2.05217
-1.98195
-1.90852
-1.83184
-1.75189
-1.66865
-1.58208
-1.49218
-1.39893
-1.30232
-1.20232
-1.09894
-0.992167
-0.881989
-0.768404
-0.651409
-0.531003
-0.407187
-0.279963
-0.14934
-0.0153236
0.122073
0.262835
0.406944
0.55438
0.705117
0.859127
1.01638
1.17684
1.34046
1.50721
1.67704
1.8499
2.02575
2.20451
2.38615
2.5706
2.75779
2.94766
3.14015
3.33519
3.5327
3.73262
3.93486
4.13936
4.34603
4.5548
4.76559
4.97832
5.1929
5.40927
5.62732
5.847
6.0682
6.29085
6.51487
6.74017
6.96667
7.19429
7.42295
7.65257
7.88307
8.11437
8.34638
8.57904
8.81227
9.04599
9.28013
9.5146
9.74935
9.9843
10.2194
10.4545
10.6897
10.9247
11.1597
11.3944
11.6289
11.8631
12.0969
12.3302
12.5631
12.7954
13.0272
13.2583
13.4887
13.7184
13.9473
14.1754
14.4026
14.6289
14.8542
15.0786
15.3019
15.5242
15.7454
15.9655
16.1844
16.4021
16.6186
16.8339
17.0479
17.2606
17.472
17.6821
17.8908
18.0981
18.3041
18.5086
18.7118
18.9134
19.1137
19.3124
19.5097
19.7055
19.8998
20.0925
20.2838
20.4735
20.6617
20.8484
21.0335
21.217
21.399
21.5795
21.7584
21.9357
22.1115
22.2857
22.4583
22.6294
22.7989
22.9669
23.1332
23.2981
23.4614
23.6231
23.7833
23.9419
24.099
24.2546
24.4086
24.5612
24.7122
24.8616
25.0096
25.1561
25.3011
25.4446
25.5866
25.7271
25.8662
26.0038
26.14
26.2748
26.4081
26.5399
26.6704
26.7994
26.9271
27.0533
27.1782
27.3017
27.4238
27.5446
27.6641
27.7821
27.8989
28.0143
28.1285
28.2413
28.3528
28.4631
28.5721
28.6798
28.7862
28.8914
28.9954
29.0981
29.1996
29.2999
29.399
29.4969
29.5936
29.6891
29.7835
29.8766
29.9687
30.0596
30.1493
30.238
30.3255
30.4119
30.4972
30.5813
30.6645
30.7465
30.8274
30.9073
30.9861
31.0639
31.1406
31.2163
31.291
31.3646
31.4373
31.5089
31.5795
31.6491
31.7177
31.7854
31.852
31.9177
31.9825
32.0463
32.1091
32.1709
32.2319
32.2919
32.351
32.4091
32.4663
32.5226
32.578
32.6325
32.6861
32.7388
32.7907
32.8416
32.8916
32.9408
32.9891
33.0365
33.0831
33.1288
33.1737
33.2177
33.2608
33.3032
33.3446
33.3853
33.4251
33.464
33.5022
33.5395
33.576
33.6117
33.6465
33.6806
33.7138
33.7462
33.7779
33.8087
33.8387
33.8679
33.8964
33.924
33.9509
33.9769
34.0022
34.0267
34.0504
34.0733
34.0955
34.1168
34.1374
34.1572
34.1763
34.1945
34.212
34.2288
34.2447
34.2599
34.2743
34.288
34.3009
34.313
34.3244
34.335
34.3449
34.354
34.3623
34.3699
34.3767
34.3827
34.388
34.3926
34.3964
34.3994
34.4017
34.4032
34.4039
-2.94176
-2.94
-2.9365
-2.93123
-2.92419
-2.91534
-2.90465
-2.8921
-2.87763
-2.8612
-2.84275
-2.82223
-2.79957
-2.77469
-2.74754
-2.71804
-2.68612
-2.65169
-2.61468
-2.57502
-2.53263
-2.48744
-2.43937
-2.38835
-2.33433
-2.27725
-2.21704
-2.15366
-2.08706
-2.01721
-1.94406
-1.86758
-1.78776
-1.70455
-1.61796
-1.52796
-1.43455
-1.3377
-1.23743
-1.13372
-1.02658
-0.916001
-0.801987
-0.684541
-0.563667
-0.439372
-0.311664
-0.180552
-0.046049
0.091832
0.233074
0.377656
0.525558
0.676752
0.83121
0.988899
1.14979
1.31383
1.48099
1.65122
1.82447
2.0007
2.17984
2.36184
2.54664
2.73417
2.92438
3.1172
3.31255
3.51038
3.71059
3.91313
4.11791
4.32485
4.53389
4.74494
4.95792
5.17274
5.38934
5.60762
5.82751
6.04892
6.27177
6.49598
6.72146
6.94814
7.17592
7.40474
7.63451
7.86514
8.09657
8.32871
8.56149
8.79482
9.02864
9.26286
9.49742
9.73225
9.96726
10.2024
10.4376
10.6728
10.9079
11.1428
11.3776
11.6121
11.8463
12.0801
12.3134
12.5463
12.7786
13.0103
13.2414
13.4718
13.7014
13.9302
14.1582
14.3854
14.6116
14.8369
15.0611
15.2844
15.5066
15.7277
15.9476
16.1664
16.384
16.6004
16.8156
17.0294
17.242
17.4533
17.6632
17.8718
18.079
18.2848
18.4892
18.6921
18.8936
19.0937
19.2923
19.4894
19.685
19.8791
20.0717
20.2628
20.4523
20.6403
20.8268
21.0117
21.1951
21.3769
21.5572
21.7359
21.913
22.0886
22.2626
22.435
22.6059
22.7752
22.943
23.1091
23.2738
23.4369
23.5984
23.7584
23.9168
24.0737
24.2291
24.3829
24.5352
24.686
24.8353
24.9831
25.1294
25.2741
25.4174
25.5593
25.6996
25.8385
25.9759
26.1119
26.2464
26.3795
26.5112
26.6415
26.7703
26.8978
27.0238
27.1485
27.2718
27.3938
27.5144
27.6336
27.7515
27.8681
27.9833
28.0973
28.2099
28.3213
28.4314
28.5402
28.6477
28.754
28.859
28.9628
29.0653
29.1667
29.2668
29.3657
29.4634
29.56
29.6553
29.7495
29.8426
29.9344
30.0252
30.1148
30.2032
30.2906
30.3768
30.462
30.546
30.629
30.7109
30.7917
30.8714
30.9501
31.0277
31.1043
31.1799
31.2544
31.3279
31.4004
31.4719
31.5424
31.6119
31.6804
31.7479
31.8145
31.88
31.9446
32.0083
32.071
32.1328
32.1936
32.2535
32.3124
32.3705
32.4276
32.4838
32.5391
32.5935
32.647
32.6996
32.7513
32.8022
32.8521
32.9012
32.9494
32.9968
33.0432
33.0889
33.1336
33.1776
33.2206
33.2629
33.3043
33.3448
33.3845
33.4234
33.4615
33.4987
33.5352
33.5708
33.6056
33.6396
33.6727
33.7051
33.7367
33.7674
33.7974
33.8266
33.855
33.8825
33.9093
33.9354
33.9606
33.985
34.0087
34.0316
34.0537
34.075
34.0955
34.1153
34.1343
34.1526
34.17
34.1867
34.2026
34.2178
34.2322
34.2458
34.2587
34.2708
34.2822
34.2928
34.3026
34.3117
34.32
34.3275
34.3343
34.3404
34.3457
34.3502
34.354
34.357
34.3593
34.3608
34.3615
-2.9741
-2.97237
-2.96893
-2.96374
-2.95681
-2.9481
-2.93758
-2.92522
-2.91098
-2.89479
-2.87663
-2.85641
-2.83407
-2.80956
-2.7828
-2.75371
-2.72221
-2.68823
-2.65169
-2.61251
-2.5706
-2.52589
-2.47829
-2.42775
-2.37418
-2.31752
-2.25771
-2.19468
-2.12839
-2.05879
-1.98584
-1.90951
-1.82975
-1.74655
-1.6599
-1.56976
-1.47615
-1.37904
-1.27844
-1.17435
-1.06677
-0.955711
-0.841177
-0.723178
-0.601724
-0.476828
-0.348503
-0.216762
-0.081623
0.0568969
0.198778
0.343997
0.492531
0.644352
0.799431
0.957734
1.11922
1.28387
1.45161
1.62242
1.79625
1.97303
2.15272
2.33527
2.5206
2.70867
2.8994
3.09273
3.28858
3.4869
3.6876
3.89061
4.09586
4.30327
4.51276
4.72426
4.93767
5.15293
5.36994
5.58863
5.80892
6.03073
6.25396
6.47854
6.70439
6.93142
7.15956
7.38872
7.61881
7.84977
8.08151
8.31396
8.54703
8.78064
9.01474
9.24923
9.48404
9.71912
9.95437
10.1897
10.4252
10.6605
10.8959
11.131
11.366
11.6006
11.835
12.0689
12.3024
12.5354
12.7679
12.9997
13.2309
13.4614
13.6911
13.9201
14.1482
14.3754
14.6017
14.827
15.0513
15.2746
15.4969
15.718
15.938
16.1568
16.3744
16.5908
16.806
17.0199
17.2324
17.4437
17.6536
17.8622
18.0693
18.2751
18.4795
18.6824
18.8839
19.0839
19.2824
19.4794
19.675
19.869
20.0616
20.2526
20.442
20.63
20.8164
21.0012
21.1845
21.3662
21.5464
21.725
21.902
22.0775
22.2514
22.4237
22.5945
22.7637
22.9313
23.0974
23.2619
23.4249
23.5863
23.7462
23.9045
24.0613
24.2165
24.3702
24.5224
24.6731
24.8223
24.9699
25.1161
25.2607
25.4039
25.5456
25.6858
25.8245
25.9618
26.0977
26.2321
26.3651
26.4966
26.6267
26.7555
26.8828
27.0087
27.1333
27.2565
27.3783
27.4987
27.6179
27.7356
27.8521
27.9672
28.081
28.1935
28.3048
28.4147
28.5234
28.6308
28.7369
28.8418
28.9455
29.0479
29.1492
29.2492
29.348
29.4456
29.542
29.6372
29.7313
29.8242
29.916
30.0066
30.0961
30.1845
30.2717
30.3578
30.4429
30.5268
30.6097
30.6914
30.7721
30.8518
30.9303
31.0079
31.0844
31.1598
31.2342
31.3077
31.3801
31.4514
31.5218
31.5912
31.6596
31.7271
31.7935
31.859
31.9235
31.9871
32.0497
32.1114
32.1721
32.2319
32.2908
32.3488
32.4058
32.4619
32.5172
32.5715
32.6249
32.6774
32.7291
32.7798
32.8297
32.8787
32.9269
32.9741
33.0206
33.0661
33.1108
33.1547
33.1977
33.2399
33.2812
33.3217
33.3614
33.4002
33.4382
33.4754
33.5118
33.5473
33.5821
33.616
33.6491
33.6815
33.713
33.7437
33.7736
33.8027
33.8311
33.8586
33.8854
33.9114
33.9365
33.9609
33.9846
34.0074
34.0295
34.0508
34.0713
34.091
34.11
34.1282
34.1457
34.1623
34.1782
34.1934
34.2078
34.2214
34.2342
34.2463
34.2577
34.2682
34.2781
34.2871
34.2954
34.303
34.3097
34.3158
34.3211
34.3256
34.3294
34.3324
34.3346
34.3361
34.3369
-2.99786
-2.99619
-2.99289
-2.98791
-2.98126
-2.97289
-2.96277
-2.95087
-2.93715
-2.92154
-2.904
-2.88445
-2.86284
-2.83908
-2.81311
-2.78485
-2.7542
-2.72109
-2.68544
-2.64714
-2.60613
-2.5623
-2.51559
-2.4659
-2.41315
-2.35729
-2.29822
-2.2359
-2.17026
-2.10124
-2.0288
-1.9529
-1.8735
-1.79057
-1.7041
-1.61407
-1.52047
-1.42329
-1.32254
-1.21822
-1.11034
-0.99892
-0.883962
-0.765488
-0.643515
-0.518062
-0.38915
-0.256801
-0.121036
0.0181217
0.160647
0.306514
0.455695
0.60816
0.763876
0.922811
1.08493
1.25018
1.41853
1.58994
1.76435
1.94171
2.12197
2.30506
2.49095
2.67955
2.8708
3.06464
3.261
3.45981
3.661
3.86449
4.07021
4.27807
4.488
4.69993
4.91377
5.12944
5.34686
5.56595
5.78663
6.0088
6.2324
6.45734
6.68353
6.9109
7.13935
7.36882
7.59922
7.83047
8.06249
8.29521
8.52854
8.76241
8.99674
9.23146
9.46649
9.70177
9.93723
10.1728
10.4084
10.6439
10.8794
11.1147
11.3498
11.5846
11.819
12.0531
12.2867
12.5198
12.7523
12.9842
13.2155
13.446
13.6758
13.9048
14.1329
14.3602
14.5865
14.8118
15.0361
15.2594
15.4816
15.7027
15.9227
16.1415
16.3591
16.5754
16.7905
17.0043
17.2168
17.428
17.6378
17.8463
18.0534
18.2591
18.4633
18.6661
18.8675
19.0674
19.2658
19.4627
19.6581
19.852
20.0444
20.2353
20.4246
20.6124
20.7986
20.9833
21.1664
21.348
21.528
21.7065
21.8833
22.0586
22.2324
22.4045
22.5751
22.7442
22.9116
23.0775
23.2419
23.4047
23.5659
23.7256
23.8837
24.0403
24.1954
24.3489
24.5009
24.6514
24.8004
24.9478
25.0938
25.2382
25.3812
25.5227
25.6628
25.8013
25.9384
26.0741
26.2083
26.3411
26.4724
26.6024
26.7309
26.8581
26.9838
27.1082
27.2312
27.3528
27.4731
27.592
27.7096
27.8259
27.9408
28.0545
28.1668
28.2779
28.3876
28.4961
28.6033
28.7093
28.8141
28.9175
29.0198
29.1209
29.2207
29.3193
29.4168
29.513
29.6081
29.702
29.7948
29.8864
29.9768
30.0662
30.1544
30.2415
30.3275
30.4123
30.4961
30.5788
30.6605
30.741
30.8205
30.8989
30.9763
31.0527
31.128
31.2023
31.2756
31.3478
31.4191
31.4893
31.5586
31.6269
31.6942
31.7605
31.8259
31.8903
31.9537
32.0162
32.0778
32.1384
32.1981
32.2569
32.3147
32.3717
32.4277
32.4828
32.537
32.5903
32.6428
32.6943
32.745
32.7948
32.8437
32.8917
32.9389
32.9852
33.0307
33.0753
33.1191
33.162
33.2041
33.2454
33.2858
33.3254
33.3641
33.4021
33.4392
33.4755
33.511
33.5456
33.5795
33.6126
33.6448
33.6763
33.7069
33.7368
33.7659
33.7942
33.8216
33.8484
33.8743
33.8994
33.9238
33.9473
33.9701
33.9922
34.0134
34.0339
34.0536
34.0725
34.0907
34.1081
34.1248
34.1406
34.1557
34.1701
34.1837
34.1965
34.2086
34.2199
34.2304
34.2402
34.2493
34.2576
34.2651
34.2719
34.2779
34.2832
34.2877
34.2914
34.2944
34.2967
34.2982
34.299
-3.03229
-3.03066
-3.02742
-3.02253
-3.01599
-3.00777
-2.99784
-2.98615
-2.97266
-2.95733
-2.94009
-2.92089
-2.89965
-2.87631
-2.85078
-2.823
-2.79286
-2.7603
-2.72522
-2.68752
-2.64713
-2.60395
-2.55789
-2.50886
-2.45679
-2.40158
-2.34317
-2.28147
-2.21643
-2.14797
-2.07605
-2.0006
-1.9216
-1.839
-1.75278
-1.66291
-1.5694
-1.47222
-1.37138
-1.26689
-1.15875
-1.04699
-0.931619
-0.812665
-0.690152
-0.564106
-0.434555
-0.301527
-0.165054
-0.0251633
0.118113
0.264743
0.414694
0.567933
0.724424
0.88413
1.04701
1.21303
1.38213
1.55428
1.72943
1.90751
2.08849
2.27229
2.45887
2.64816
2.84009
3.0346
3.23162
3.43108
3.6329
3.83702
4.04335
4.25182
4.46236
4.67487
4.88929
5.10552
5.3235
5.54313
5.76434
5.98704
6.21116
6.4366
6.66328
6.89113
7.12005
7.34998
7.58083
7.81251
8.04496
8.27809
8.51182
8.74608
8.98079
9.21587
9.45126
9.68689
9.92267
10.1586
10.3945
10.6303
10.8661
11.1017
11.337
11.5721
11.8068
12.041
12.2749
12.5082
12.7409
12.973
13.2045
13.4352
13.6651
13.8942
14.1225
14.3499
14.5763
14.8017
15.0262
15.2496
15.4719
15.693
15.9131
16.1319
16.3496
16.5659
16.7811
16.9949
17.2075
17.4187
17.6285
17.837
18.0441
18.2497
18.454
18.6567
18.8581
19.0579
19.2563
19.4532
19.6486
19.8424
20.0348
20.2256
20.4148
20.6025
20.7887
20.9733
21.1563
21.3378
21.5177
21.6961
21.8729
22.0481
22.2217
22.3937
22.5642
22.7332
22.9005
23.0663
23.2305
23.3932
23.5543
23.7139
23.8719
24.0283
24.1833
24.3367
24.4885
24.6389
24.7877
24.935
25.0809
25.2252
25.368
25.5094
25.6493
25.7877
25.9247
26.0602
26.1943
26.3269
26.4581
26.5879
26.7163
26.8433
26.9689
27.0931
27.216
27.3375
27.4576
27.5764
27.6938
27.81
27.9248
28.0383
28.1505
28.2614
28.371
28.4794
28.5864
28.6923
28.7969
28.9002
29.0023
29.1033
29.203
29.3015
29.3988
29.4949
29.5898
29.6836
29.7762
29.8677
29.958
30.0472
30.1353
30.2223
30.3081
30.3929
30.4766
30.5591
30.6406
30.7211
30.8005
30.8788
30.956
31.0323
31.1075
31.1817
31.2548
31.327
31.3981
31.4683
31.5374
31.6056
31.6728
31.739
31.8043
31.8686
31.9319
31.9943
32.0558
32.1163
32.1759
32.2346
32.2923
32.3492
32.4051
32.4601
32.5142
32.5675
32.6198
32.6713
32.7219
32.7716
32.8204
32.8684
32.9155
32.9617
33.0071
33.0517
33.0954
33.1382
33.1802
33.2214
33.2618
33.3013
33.34
33.3779
33.4149
33.4512
33.4866
33.5212
33.555
33.588
33.6202
33.6516
33.6822
33.712
33.7411
33.7693
33.7967
33.8234
33.8493
33.8744
33.8987
33.9222
33.945
33.967
33.9882
34.0086
34.0283
34.0472
34.0653
34.0827
34.0993
34.1152
34.1302
34.1446
34.1581
34.1709
34.183
34.1943
34.2048
34.2146
34.2236
34.2319
34.2394
34.2462
34.2522
34.2574
34.262
34.2657
34.2687
34.271
34.2725
34.2732
-3.06085
-3.05927
-3.05614
-3.05142
-3.0451
-3.03715
-3.02754
-3.01623
-3.00317
-2.98831
-2.9716
-2.95296
-2.93233
-2.90964
-2.88481
-2.85776
-2.8284
-2.79664
-2.76238
-2.72555
-2.68604
-2.64375
-2.5986
-2.55049
-2.49934
-2.44505
-2.38753
-2.32672
-2.26252
-2.19488
-2.12372
-2.04899
-1.97064
-1.88862
-1.80291
-1.71346
-1.62027
-1.52333
-1.42262
-1.31817
-1.20997
-1.09806
-0.982437
-0.863146
-0.740215
-0.613678
-0.48357
-0.349929
-0.212792
-0.0721995
0.071811
0.2192
0.369929
0.523957
0.681244
0.841749
1.00543
1.17224
1.34213
1.51506
1.69098
1.86983
2.05155
2.2361
2.42341
2.61342
2.80606
3.00127
3.19897
3.39911
3.6016
3.80637