/*--------------------------------*- C++ -*----------------------------------*\
| =========                 |                                                 |
| \\      /  F ield         | OpenFOAM: The Open Source CFD Toolbox           |
|  \\    /   O peration     | Version:  2212                                  |
|   \\  /    A nd           | Website:  www.openfoam.com                      |
|    \\/     M anipulation  |                                                 |
\*---------------------------------------------------------------------------*/
FoamFile
{
    version     2.0;
    format      ascii;
    arch        "LSB;label=32;scalar=64";
    class       surfaceScalarField;
    location    "190";
    object      phi;
}
// * * * * * * * * * * * * * * * * * * * * * * * * * * * * * * * * * * * * * //

dimensions      [1 0 -1 0 0 0 0];

oriented        oriented;

internalField   nonuniform List<scalar> 
408640
(
-1474.94
1471.32
-2948.24
1472.15
-4419.45
1470.08
-5886.96
1466.41
-7348.91
1460.85
-8803.53
1453.51
-10248.9
1444.24
-11683
1433.02
-13104
1419.86
-14510
1404.87
-15899.3
1388.2
-17270.5
1370.02
-18622.1
1350.48
-19953
1329.68
-21261.8
1307.66
-22547.4
1284.46
-23808.7
1260.1
-25044.6
1234.69
-26254.1
1208.33
-27436.4
1181.16
-28590.9
1153.34
-29717
1125.01
-30814.5
1096.3
-31883
1067.38
-32922.5
1038.38
-33933
1009.43
-34914.7
980.637
-35867.9
952.1
-36792.9
923.883
-37690
896.032
-38559.6
868.581
-39402.2
841.549
-40218.2
814.948
-41008
788.783
-41772.1
763.051
-42510.8
737.745
-43224.6
712.851
-43914
688.354
-44579.2
664.235
-45220.6
640.476
-45838.6
617.06
-46433.6
593.973
-47005.7
571.201
-47555.4
548.733
-48082.8
526.561
-48588.4
504.676
-49072.4
483.073
-49535
461.746
-49976.6
440.691
-50397.4
419.909
-50797.6
399.396
-51177.6
379.156
-51537.7
359.189
-51878
339.497
-52198.9
320.085
-52500.7
300.954
-52783.6
282.108
-53047.9
263.552
-53294
245.287
-53522.1
227.317
-53732.5
209.646
-53925.5
192.276
-54101.4
175.209
-54260.6
158.449
-54403.3
141.997
-54529.9
125.855
-54640.6
110.025
-54735.8
94.5076
-54815.8
79.3046
-54880.9
64.4166
-54931.3
49.8443
-54967.6
35.5878
-54989.9
21.6474
-54998.5
8.02281
-54993.8
-5.28628
-54976.1
-18.2805
-54945.7
-30.9607
-54903
-43.3279
-54848.2
-55.3834
-54781.6
-67.1286
-54703.6
-78.5653
-54614.4
-89.6952
-54514.4
-100.52
-54403.9
-111.043
-54283.1
-121.266
-54152.4
-131.192
-54012
-140.822
-53862.3
-150.161
-53703.6
-159.211
-53536
-167.976
-53360
-176.458
-53175.7
-184.662
-52983.6
-192.59
-52783.7
-200.247
-52576.4
-207.636
-52362.1
-214.761
-52140.8
-221.626
-51912.9
-228.235
-51678.6
-234.593
-51438.3
-240.703
-51192
-246.57
-50940.1
-252.198
-50682.8
-257.591
-50420.3
-262.754
-50152.9
-267.691
-49880.7
-272.406
-49604.1
-276.905
-49323.1
-281.192
-49038.1
-285.27
-48749.1
-289.145
-48456.5
-292.822
-48160.4
-296.304
-47861
-299.596
-47558.4
-302.702
-47253
-305.628
-46944.7
-308.378
-46633.9
-310.955
-46320.7
-313.365
-46005.2
-315.611
-45687.6
-317.699
-45368
-319.631
-45046.7
-321.414
-44723.7
-323.05
-44399.2
-324.543
-44073.3
-325.899
-43746.3
-327.121
-43418.1
-328.212
-43088.9
-329.178
-42758.9
-330.021
-42428.1
-330.746
-42096.8
-331.357
-41764.9
-331.856
-41432.6
-332.248
-41100
-332.536
-40767.2
-332.723
-40434.3
-332.814
-40101.4
-332.812
-39768.6
-332.719
-39436
-332.539
-39103.6
-332.275
-38771.6
-331.931
-38439.9
-331.509
-38108.8
-331.012
-37778.2
-330.443
-37448.2
-329.806
-37119
-329.102
-36790.5
-328.335
-36462.8
-327.507
-36136
-326.62
-35810.1
-325.678
-35485.2
-324.683
-35161.3
-323.636
-34838.6
-322.541
-34516.9
-321.4
-34196.5
-320.214
-33877.2
-318.987
-33559.3
-317.72
-33242.6
-316.414
-32927.2
-315.073
-32613.3
-313.698
-32300.7
-312.291
-31989.5
-310.853
-31679.8
-309.387
-31371.6
-307.894
-31064.9
-306.376
-30759.8
-304.834
-30456.2
-303.271
-30154.1
-301.686
-29853.7
-300.083
-29554.9
-298.462
-29257.7
-296.824
-28962.2
-295.172
-28668.3
-293.506
-28376.1
-291.827
-28085.6
-290.137
-27796.8
-288.437
-27509.6
-286.728
-27224.2
-285.011
-26940.5
-283.288
-26658.6
-281.558
-26378.3
-279.823
-26099.8
-278.085
-25823.1
-276.343
-25548.1
-274.599
-25274.8
-272.854
-25003.2
-271.109
-24733.4
-269.363
-24465.4
-267.618
-24199
-265.876
-23934.4
-264.135
-23671.6
-262.398
-23410.5
-260.664
-23151.1
-258.934
-22893.4
-257.21
-22637.4
-255.49
-22383.2
-253.777
-22130.7
-252.07
-21879.8
-250.371
-21630.6
-248.678
-21383.2
-246.994
-21137.4
-245.318
-20893.2
-243.651
-20650.8
-241.992
-20409.9
-240.344
-20170.7
-238.705
-19933.2
-237.077
-19697.2
-235.459
-19462.8
-233.852
-19230.1
-232.256
-18998.9
-230.672
-18769.3
-229.1
-18541.3
-227.539
-18314.8
-225.991
-18089.8
-224.455
-17866.4
-222.932
-17644.5
-221.422
-17424.1
-219.924
-17205.1
-218.44
-16987.6
-216.97
-16771.6
-215.513
-16557
-214.07
-16343.9
-212.641
-16132.2
-211.226
-15921.8
-209.825
-15712.9
-208.438
-15505.3
-207.065
-15299.1
-205.707
-15094.3
-204.364
-14890.7
-203.035
-14688.5
-201.721
-14487.6
-200.422
-14288
-199.138
-14089.6
-197.868
-13892.5
-196.614
-13696.6
-195.375
-13502
-194.15
-13308.5
-192.941
-13116.3
-191.747
-12925.3
-190.568
-12735.4
-189.405
-12546.6
-188.256
-12359
-187.123
-12172.5
-186.005
-11987.2
-184.902
-11802.9
-183.815
-11619.7
-182.743
-11437.5
-181.686
-11256.4
-180.644
-11076.3
-179.618
-10897.2
-178.607
-10719.2
-177.611
-10542.1
-176.63
-10365.9
-175.665
-10190.8
-174.715
-10016.5
-173.779
-9843.23
-172.86
-9670.82
-171.955
-9499.31
-171.065
-9328.68
-170.19
-9158.91
-169.331
-8989.98
-168.486
-8821.89
-167.656
-8654.61
-166.842
-8488.14
-166.042
-8322.46
-165.257
-8157.54
-164.487
-7993.39
-163.732
-7829.97
-162.992
-7667.29
-162.266
-7505.32
-161.555
-7344.05
-160.859
-7183.46
-160.177
-7023.54
-159.51
-6864.27
-158.858
-6705.65
-158.22
-6547.65
-157.597
-6390.26
-156.988
-6233.47
-156.394
-6077.26
-155.814
-5921.62
-155.248
-5766.53
-154.697
-5611.99
-154.159
-5457.96
-153.637
-5304.45
-153.128
-5151.44
-152.634
-4998.9
-152.153
-4846.84
-151.687
-4695.23
-151.235
-4544.05
-150.797
-4393.31
-150.373
-4242.98
-149.963
-4093.04
-149.567
-3943.49
-149.185
-3794.3
-148.817
-3645.48
-148.463
-3496.99
-148.122
-3348.84
-147.796
-3200.99
-147.483
-3053.45
-147.184
-2906.2
-146.899
-2759.21
-146.627
-2612.49
-146.369
-2466.01
-146.125
-2319.77
-145.895
-2173.74
-145.678
-2027.91
-145.475
-1882.28
-145.285
-1736.82
-145.109
-1591.53
-144.947
-1446.38
-144.798
-1301.37
-144.664
-1156.48
-144.543
-1011.7
-144.436
-867.015
-144.343
-722.406
-144.265
-577.861
-144.202
-433.363
-144.154
-288.897
-144.123
-144.447
-144.106
-144.104
-1464.8
2934.95
-2928.91
2935.1
-4390.98
2931.02
-5849.34
2923.65
-7302.41
2912.8
-8748.5
2898.49
-10185.9
2880.47
-11612.7
2858.71
-13027.2
2833.22
-14427.7
2804.19
-15812.5
2771.86
-17180.2
2736.55
-18529.4
2698.52
-19858.8
2657.93
-21167.2
2614.88
-22453.3
2569.4
-23716
2521.57
-24954
2471.55
-26166.4
2419.55
-27352.3
2365.84
-28510.8
2310.69
-29641.3
2254.4
-30743.4
2197.25
-31816.7
2139.53
-32861
2081.53
-33876.2
2023.53
-34862.5
1965.75
-35819.9
1908.39
-36748.7
1851.6
-37649.2
1795.49
-38521.8
1740.15
-39367
1685.64
-40185
1631.99
-40976.5
1579.22
-41741.8
1527.34
-42481.4
1476.35
-43195.8
1426.23
-43885.3
1376.93
-44550.5
1328.44
-45191.7
1280.71
-45809.3
1233.7
-46403.7
1187.39
-46975.1
1141.73
-47524
1096.72
-48050.7
1052.32
-48555.5
1008.51
-49038.6
965.287
-49500.3
922.623
-49941
880.515
-50361
838.955
-50760.4
797.941
-51139.5
757.473
-51498.7
717.554
-51838.2
678.188
-52158.4
639.38
-52459.4
601.136
-52741.5
563.462
-53005.1
526.367
-53250.5
489.855
-53477.8
453.934
-53687.6
418.609
-53879.9
383.887
-54055.2
349.773
-54213.8
316.27
-54355.9
283.384
-54481.8
251.118
-54592
219.476
-54686.6
188.46
-54766.1
158.072
-54830.6
128.314
-54880.6
99.1877
-54916.3
70.6929
-54938.2
42.83
-54946.3
15.5987
-54941.2
-11.0016
-54923.1
-36.9723
-54892.4
-62.315
-54849.2
-87.0318
-54794.1
-111.125
-54727.1
-134.598
-54648.8
-157.455
-54559.3
-179.697
-54459
-201.331
-54348.2
-222.36
-54227.2
-242.789
-54096.2
-262.623
-53955.7
-281.868
-53805.7
-300.529
-53646.8
-318.614
-53479.1
-336.127
-53302.9
-353.076
-53118.5
-369.468
-52926.2
-385.309
-52726.2
-400.607
-52518.8
-415.371
-52304.4
-429.606
-52083
-443.322
-51855.1
-456.527
-51620.8
-469.228
-51380.4
-481.434
-51134.1
-493.154
-50882.2
-504.397
-50624.9
-515.17
-50362.5
-525.483
-50095.1
-535.345
-49823
-544.764
-49546.4
-553.749
-49265.5
-562.311
-48980.5
-570.456
-48691.7
-578.195
-48399.1
-585.537
-48103.1
-592.49
-47803.9
-599.064
-47501.5
-605.268
-47196.1
-611.11
-46888
-616.599
-46577.4
-621.744
-46264.3
-626.555
-45949
-631.038
-45631.6
-635.205
-45312.2
-639.062
-44991.1
-642.618
-44668.4
-645.882
-44344.1
-648.863
-44018.5
-651.567
-43691.6
-654.003
-43363.7
-656.18
-43034.8
-658.104
-42705
-659.785
-42374.5
-661.228
-42043.4
-662.443
-41711.8
-663.436
-41379.8
-664.214
-41047.5
-664.785
-40715
-665.155
-40382.4
-665.332
-40049.8
-665.322
-39717.3
-665.132
-39385
-664.769
-39052.9
-664.237
-38721.2
-663.545
-38389.9
-662.697
-38059
-661.7
-37728.8
-660.56
-37399.2
-659.282
-37070.2
-657.871
-36742
-656.334
-36414.7
-654.675
-36088.2
-652.9
-35762.7
-651.014
-35438.1
-649.021
-35114.6
-646.926
-34792.2
-644.734
-34470.9
-642.45
-34150.8
-640.078
-33831.9
-637.622
-33514.3
-635.086
-33198
-632.474
-32883
-629.791
-32569.4
-627.04
-32257.2
-624.225
-31946.4
-621.349
-31637
-618.416
-31329.2
-615.43
-31022.9
-612.393
-30718.1
-609.31
-30414.8
-606.182
-30113.1
-603.013
-29813.1
-599.806
-29514.6
-596.564
-29217.8
-593.29
-28922.6
-589.985
-28629.1
-586.653
-28337.3
-583.297
-28047.1
-579.918
-27758.6
-576.518
-27471.9
-573.101
-27186.8
-569.668
-26903.5
-566.221
-26621.9
-562.762
-26342
-559.294
-26063.8
-555.818
-25787.4
-552.336
-25512.7
-548.849
-25239.8
-545.36
-24968.6
-541.87
-24699.2
-538.38
-24431.4
-534.892
-24165.5
-531.407
-23901.2
-527.928
-23638.7
-524.454
-23377.9
-520.988
-23118.9
-517.53
-22861.5
-514.082
-22605.9
-510.645
-22352
-507.22
-22099.8
-503.808
-21849.3
-500.41
-21600.4
-497.027
-21353.3
-493.66
-21107.8
-490.309
-20864
-486.976
-20621.9
-483.661
-20381.3
-480.366
-20142.5
-477.09
-19905.2
-473.835
-19669.6
-470.601
-19435.6
-467.389
-19203.1
-464.199
-18972.3
-461.032
-18743
-457.889
-18515.2
-454.769
-18289.1
-451.674
-18064.4
-448.604
-17841.3
-445.56
-17619.7
-442.541
-17399.5
-439.548
-17180.9
-436.582
-16963.7
-433.642
-16748
-430.73
-16533.7
-427.846
-16320.9
-424.989
-16109.4
-422.16
-15899.4
-419.36
-15690.7
-416.588
-15483.5
-413.844
-15277.5
-411.13
-15072.9
-408.445
-14869.7
-405.789
-14667.8
-403.163
-14467.1
-400.566
-14267.8
-397.999
-14069.7
-395.462
-13872.8
-392.954
-13677.2
-390.477
-13482.9
-388.03
-13289.7
-385.613
-13097.7
-383.227
-12907
-380.87
-12717.3
-378.544
-12528.9
-376.249
-12341.5
-373.984
-12155.3
-371.75
-11970.2
-369.546
-11786.1
-367.372
-11603.2
-365.229
-11421.3
-363.117
-11240.4
-361.035
-11060.6
-358.983
-10881.8
-356.963
-10704
-354.972
-10527.1
-353.012
-10351.2
-351.082
-10176.3
-349.183
-10002.3
-347.314
-9829.26
-345.475
-9657.1
-343.667
-9485.83
-341.889
-9315.44
-340.14
-9145.91
-338.422
-8977.22
-336.734
-8809.37
-335.076
-8642.33
-333.448
-8476.09
-331.849
-8310.64
-330.281
-8145.96
-328.742
-7982.04
-327.232
-7818.86
-325.753
-7656.4
-324.302
-7494.66
-322.882
-7333.61
-321.49
-7173.25
-320.128
-7013.56
-318.795
-6854.52
-317.491
-6696.12
-316.216
-6538.35
-314.97
-6381.18
-313.753
-6224.61
-312.565
-6068.63
-311.406
-5913.21
-310.276
-5758.34
-309.174
-5604.01
-308.1
-5450.21
-307.055
-5296.91
-306.039
-5144.12
-305.051
-4991.8
-304.091
-4839.95
-303.159
-4688.55
-302.256
-4537.6
-301.38
-4387.06
-300.533
-4236.94
-299.713
-4087.22
-298.922
-3937.88
-298.158
-3788.91
-297.423
-3640.3
-296.714
-3492.02
-296.034
-3344.08
-295.381
-3196.44
-294.756
-3049.11
-294.158
-2902.07
-293.588
-2755.29
-293.046
-2608.78
-292.53
-2462.51
-292.042
-2316.47
-291.582
-2170.65
-291.149
-2025.03
-290.743
-1879.6
-290.364
-1734.35
-290.012
-1589.26
-289.688
-1444.33
-289.391
-1299.52
-289.121
-1154.84
-288.879
-1010.27
-288.665
-865.784
-288.48
-721.382
-288.324
-577.042
-288.198
-432.751
-288.102
-288.491
-288.039
-144.247
-288.008
-288.008
-1452.74
4386.51
-2904.72
4385.91
-4354.72
4379.87
-5801.23
4369
-7242.8
4353.22
-8677.9
4332.43
-10104.9
4306.35
-11522.3
4274.9
-12928.4
4238.1
-14321.5
4196.17
-15700.3
4149.46
-17063.3
4098.35
-18409.2
4043.18
-19736.7
3984.16
-21044.4
3921.4
-22331.2
3854.94
-23595.7
3784.88
-24836.8
3711.43
-26053.3
3634.88
-27244.3
3555.59
-28408.8
3473.96
-29545.9
3390.38
-30655.2
3305.3
-31736
3219.13
-32787.9
3132.32
-33810.8
3045.27
-34804.5
2958.35
-35769.1
2871.87
-36704.7
2786.09
-37611.5
2701.21
-38489.8
2617.38
-39340
2534.74
-40162.4
2453.36
-40957.5
2373.32
-41725.9
2294.64
-42467.9
2217.34
-43184
2141.4
-43874.9
2066.79
-44540.9
1993.45
-45182.5
1921.35
-45800.1
1850.41
-46394.3
1780.59
-46965.3
1711.83
-47513.6
1644.09
-48039.5
1577.33
-48543.4
1511.5
-49025.6
1446.58
-49486.4
1382.54
-49926.1
1319.35
-50345
1256.99
-50743.4
1195.47
-51121.6
1134.78
-51479.8
1074.91
-51818.3
1015.88
-52137.4
957.689
-52437.4
900.344
-52718.6
843.856
-52981.3
788.235
-53225.7
733.491
-53452.2
679.633
-53661
626.67
-53852.5
574.611
-54026.9
523.463
-54184.6
473.234
-54325.8
423.93
-54451
375.556
-54560.3
328.118
-54654.2
281.619
-54732.8
236.063
-54796.6
191.452
-54845.9
147.788
-54880.9
105.071
-54902
63.3031
-54909.5
22.4824
-54903.7
-17.3919
-54884.9
-56.3216
-54853.5
-94.3094
-54809.8
-131.358
-54754
-167.472
-54686.5
-202.655
-54607.6
-236.913
-54517.5
-270.251
-54416.7
-302.675
-54305.4
-334.192
-54183.9
-364.809
-54052.4
-394.535
-53911.4
-423.376
-53761
-451.343
-53601.6
-478.443
-53433.5
-504.688
-53256.9
-530.086
-53072.2
-554.648
-52879.5
-578.385
-52679.2
-601.308
-52471.5
-623.428
-52256.7
-644.757
-52035.1
-665.307
-51806.9
-685.09
-51572.3
-704.119
-51331.7
-722.405
-51085.2
-739.962
-50833.1
-756.803
-50575.6
-772.94
-50313
-788.388
-50045.4
-803.158
-49773.2
-817.266
-49496.4
-830.723
-49215.4
-843.544
-48930.4
-855.742
-48641.4
-867.331
-48348.8
-878.324
-48052.8
-888.735
-47753.5
-898.577
-47451
-907.864
-47145.7
-916.609
-46837.6
-924.825
-46526.9
-932.526
-46213.9
-939.725
-45898.6
-946.434
-45581.2
-952.668
-45261.9
-958.438
-44940.9
-963.757
-44618.2
-968.639
-44294
-973.094
-43968.5
-977.137
-43641.7
-980.778
-43313.9
-984.029
-42985.1
-986.904
-42655.5
-989.412
-42325.2
-991.565
-41994.2
-993.376
-41662.8
-994.854
-41330.9
-996.01
-40998.8
-996.856
-40666.5
-997.402
-40334.1
-997.657
-40001.7
-997.633
-39669.4
-997.339
-39337.3
-996.784
-39005.5
-995.979
-38674
-994.932
-38342.9
-993.653
-38012.3
-992.15
-37682.3
-990.433
-37352.9
-988.509
-37024.2
-986.387
-36696.3
-984.075
-36369.2
-981.581
-36043
-978.913
-35717.7
-976.078
-35393.5
-973.083
-35070.2
-969.937
-34748.1
-966.644
-34427.1
-963.214
-34107.3
-959.651
-33788.7
-955.963
-33471.4
-952.156
-33155.3
-948.235
-32840.7
-944.207
-32527.3
-940.078
-32215.4
-935.853
-31904.9
-931.537
-31595.9
-927.135
-31288.4
-922.654
-30982.4
-918.097
-30677.9
-913.47
-30374.9
-908.777
-30073.6
-904.023
-29773.8
-899.211
-29475.7
-894.347
-29179.2
-889.434
-28884.4
-884.477
-28591.2
-879.479
-28299.6
-874.443
-28009.8
-869.374
-27721.7
-864.275
-27435.2
-859.149
-27150.5
-853.999
-26867.5
-848.829
-26586.2
-843.642
-26306.6
-838.44
-26028.8
-833.226
-25752.7
-828.004
-25478.4
-822.775
-25205.8
-817.542
-24934.9
-812.307
-24665.8
-807.073
-24398.4
-801.842
-24132.7
-796.617
-23868.8
-791.398
-23606.6
-786.189
-23346.1
-780.991
-23087.4
-775.806
-22830.4
-770.636
-22575.1
-765.482
-22321.5
-760.346
-22069.6
-755.229
-21819.4
-750.134
-21570.9
-745.061
-21324
-740.012
-21078.9
-734.988
-20835.4
-729.99
-20593.5
-725.02
-20353.3
-720.079
-20114.8
-715.167
-19877.8
-710.287
-19642.5
-705.438
-19408.8
-700.621
-19176.6
-695.839
-18946.1
-691.09
-18717.1
-686.377
-18489.6
-681.7
-18263.8
-677.06
-18039.4
-672.457
-17816.6
-667.892
-17595.2
-663.366
-17375.4
-658.879
-17157.1
-654.432
-16940.2
-650.026
-16724.7
-645.66
-16510.7
-641.335
-16298.2
-637.052
-16087
-632.811
-15877.3
-628.612
-15668.9
-624.457
-15461.9
-620.344
-15256.3
-616.275
-15052
-612.249
-14849
-608.267
-14647.3
-604.33
-14446.9
-600.437
-14247.9
-596.589
-14050
-592.785
-13853.5
-589.026
-13658.1
-585.312
-13464
-581.644
-13271.1
-578.021
-13079.4
-574.443
-12888.9
-570.911
-12699.6
-567.424
-12511.3
-563.983
-12324.3
-560.587
-12138.3
-557.238
-11953.4
-553.934
-11769.6
-550.675
-11586.9
-547.463
-11405.3
-544.296
-11224.7
-541.175
-11045.1
-538.1
-10866.5
-535.071
-10688.9
-532.087
-10512.4
-529.148
-10336.7
-526.256
-10162
-523.409
-9988.3
-520.607
-9815.47
-517.85
-9643.55
-515.139
-9472.52
-512.474
-9302.37
-509.853
-9133.07
-507.278
-8964.62
-504.747
-8797
-502.261
-8630.19
-499.821
-8464.19
-497.425
-8298.97
-495.073
-8134.52
-492.766
-7970.82
-490.504
-7807.87
-488.286
-7645.64
-486.112
-7484.13
-483.982
-7323.31
-481.896
-7163.17
-479.854
-7003.7
-477.856
-6844.89
-475.901
-6686.71
-473.99
-6529.15
-472.123
-6372.21
-470.299
-6215.86
-468.518
-6060.09
-466.78
-5904.89
-465.085
-5750.24
-463.433
-5596.13
-461.824
-5442.54
-460.258
-5289.46
-458.734
-5136.88
-457.253
-4984.78
-455.814
-4833.14
-454.418
-4681.96
-453.063
-4531.21
-451.751
-4380.89
-450.481
-4230.98
-449.253
-4081.47
-448.066
-3932.34
-446.922
-3783.58
-445.819
-3635.17
-444.757
-3487.11
-443.737
-3339.37
-442.759
-3191.95
-441.822
-3044.82
-440.926
-2897.98
-440.071
-2751.41
-439.258
-2605.11
-438.485
-2459.04
-437.754
-2313.21
-437.064
-2167.59
-436.414
-2022.18
-435.805
-1876.96
-435.238
-1731.91
-434.711
-1587.03
-434.225
-1442.29
-433.779
-1297.69
-433.375
-1153.21
-433.012
-1008.84
-432.692
-864.566
-432.413
-720.367
-432.179
-576.231
-431.99
-432.143
-431.848
-288.086
-431.754
-144.043
-431.708
-431.709
-1436.88
5822.18
-2873.07
5820.89
-4307.35
5812.95
-5738.42
5798.86
-7164.99
5778.59
-8585.71
5751.94
-9999.22
5718.64
-11404.1
5678.56
-12799
5631.72
-14182.4
5578.36
-15553
5518.85
-16909.6
5453.62
-18250.7
5383.03
-19575.1
5307.31
-20881.5
5226.56
-22168.7
5140.83
-23435.3
5050.22
-24680.1
4954.95
-25901.8
4855.36
-27099.4
4751.89
-28271.7
4645.01
-29417.7
4535.22
-30536.7
4423.06
-31627.9
4309.1
-32690.7
4193.9
-33724.6
4078.01
-34729.4
3961.92
-35704.8
3846.09
-36650.7
3730.9
-37567.3
3616.66
-38454.6
3503.64
-39313
3392.05
-40142.8
3282.06
-40944.3
3173.81
-41718.1
3067.4
-42464.7
2962.88
-43184.6
2860.26
-43878.3
2759.52
-44546.4
2660.61
-45189.5
2563.47
-45808.1
2468.03
-46402.7
2374.21
-46973.7
2281.94
-47521.7
2191.14
-48047
2101.75
-48550.1
2013.71
-49031.4
1926.94
-49491.1
1841.41
-49929.7
1757.05
-50347.5
1673.86
-50744.6
1591.8
-51121.6
1510.86
-51478.5
1431.03
-51815.8
1352.33
-52133.7
1274.76
-52432.5
1198.31
-52712.4
1123.02
-52973.9
1048.88
-53217.1
975.914
-53442.3
904.131
-53650
833.541
-53840.2
764.158
-54013.5
695.99
-54170
629.048
-54310.2
563.34
-54434.2
498.873
-54542.4
435.654
-54635.2
373.688
-54712.8
312.979
-54775.5
253.531
-54823.7
195.346
-54857.7
138.425
-54877.8
82.769
-54884.3
28.3766
-54877.5
-24.7535
-54857.8
-76.6239
-54825.5
-127.238
-54780.8
-176.6
-54724.1
-224.715
-54655.7
-271.589
-54576
-317.229
-54485.1
-361.642
-54383.5
-404.836
-54271.3
-446.821
-54149
-487.606
-54016.8
-527.202
-53875.1
-565.619
-53724
-602.87
-53563.9
-638.966
-53395.1
-673.921
-53217.9
-707.747
-53032.5
-740.459
-52839.2
-772.071
-52638.3
-802.597
-52430.1
-832.053
-52214.7
-860.455
-51992.6
-887.818
-51763.8
-914.158
-51528.8
-939.493
-51287.7
-963.839
-51040.8
-987.212
-50788.2
-1009.63
-50530.3
-1031.11
-50267.3
-1051.67
-49999.4
-1071.33
-49726.8
-1090.11
-49449.8
-1108.02
-49168.5
-1125.08
-48883.1
-1141.31
-48593.9
-1156.73
-48301.1
-1171.36
-48004.8
-1185.21
-47705.2
-1198.3
-47402.6
-1210.66
-47097.1
-1222.29
-46788.8
-1233.21
-46478
-1243.45
-46164.9
-1253.02
-45849.5
-1261.94
-45532
-1270.23
-45212.6
-1277.89
-44891.5
-1284.96
-44568.8
-1291.45
-44244.5
-1297.36
-43919
-1302.73
-43592.2
-1307.56
-43264.4
-1311.87
-42935.7
-1315.68
-42606.1
-1319.01
-42275.8
-1321.86
-41944.9
-1324.25
-41613.5
-1326.2
-41281.7
-1327.73
-40949.7
-1328.84
-40617.5
-1329.55
-40285.2
-1329.87
-39952.9
-1329.82
-39620.8
-1329.41
-39288.8
-1328.66
-38957.1
-1327.57
-38625.8
-1326.16
-38294.8
-1324.44
-37964.4
-1322.42
-37634.6
-1320.12
-37305.4
-1317.54
-36976.9
-1314.7
-36649.2
-1311.61
-36322.3
-1308.27
-35996.4
-1304.7
-35671.3
-1300.91
-35347.3
-1296.91
-35024.3
-1292.71
-34702.4
-1288.31
-34381.7
-1283.73
-34062.1
-1278.97
-33743.8
-1274.04
-33426.7
-1268.96
-33111
-1263.73
-32796.5
-1258.35
-32483.5
-1252.84
-32171.9
-1247.2
-31861.7
-1241.44
-31552.9
-1235.56
-31245.7
-1229.58
-30940
-1223.5
-30635.8
-1217.33
-30333.2
-1211.07
-30032.1
-1204.73
-29732.7
-1198.31
-29434.9
-1191.82
-29138.7
-1185.27
-28844.1
-1178.65
-28551.2
-1171.99
-28260
-1165.27
-27970.5
-1158.51
-27682.7
-1151.71
-27396.6
-1144.88
-27112.2
-1138.01
-26829.5
-1131.11
-26548.5
-1124.2
-26269.3
-1117.26
-25991.8
-1110.31
-25716
-1103.34
-25442
-1096.37
-25169.7
-1089.4
-24899.2
-1082.42
-24630.4
-1075.44
-24363.3
-1068.46
-24098
-1061.5
-23834.4
-1054.54
-23572.5
-1047.6
-23312.4
-1040.67
-23054
-1033.75
-22797.3
-1026.86
-22542.3
-1019.99
-22289.1
-1013.14
-22037.5
-1006.32
-21787.6
-999.532
-21539.4
-992.77
-21292.9
-986.04
-21048.1
-979.343
-20804.9
-972.682
-20563.4
-966.057
-20323.5
-959.471
-20085.3
-952.924
-19848.6
-946.419
-19613.6
-939.956
-19380.2
-933.537
-19148.4
-927.162
-18918.1
-920.833
-18689.5
-914.552
-18462.4
-908.318
-18236.8
-902.134
-18012.7
-895.999
-17790.2
-889.916
-17569.2
-883.884
-17349.7
-877.904
-17131.6
-871.977
-16915
-866.104
-16699.9
-860.285
-16486.2
-854.522
-16274
-848.814
-16063.1
-843.162
-15853.7
-837.567
-15645.6
-832.029
-15438.9
-826.548
-15233.5
-821.125
-15029.5
-815.76
-14826.8
-810.454
-14625.5
-805.207
-14425.4
-800.019
-14226.6
-794.891
-14029.1
-789.822
-13832.8
-784.813
-13637.7
-779.864
-13443.9
-774.976
-13251.3
-770.148
-13059.9
-765.38
-12869.6
-760.673
-12680.5
-756.027
-12492.6
-751.441
-12305.8
-746.917
-12120.1
-742.453
-11935.5
-738.05
-11752
-733.709
-11569.6
-729.428
-11388.2
-725.208
-11207.8
-721.049
-11028.5
-716.952
-10850.2
-712.915
-10672.9
-708.939
-10496.6
-705.024
-10321.2
-701.169
-10146.8
-697.375
-9973.29
-693.642
-9800.72
-689.969
-9629.05
-686.357
-9458.28
-682.805
-9288.38
-679.313
-9119.33
-675.881
-8951.13
-672.509
-8783.76
-669.197
-8617.21
-665.945
-8451.45
-662.752
-8286.48
-659.619
-8122.27
-656.545
-7958.82
-653.531
-7796.11
-650.575
-7634.13
-647.678
-7472.85
-644.84
-7312.28
-642.061
-7152.38
-639.34
-6993.15
-636.678
-6834.57
-634.073
-6676.63
-631.527
-6519.32
-629.039
-6362.61
-626.608
-6206.49
-624.235
-6050.96
-621.92
-5895.99
-619.662
-5741.57
-617.461
-5587.69
-615.317
-5434.34
-613.23
-5281.49
-611.2
-5129.13
-609.226
-4977.26
-607.309
-4825.85
-605.448
-4674.9
-603.644
-4524.38
-601.896
-4374.29
-600.203
-4224.6
-598.567
-4075.31
-596.986
-3926.41
-595.461
-3777.87
-593.991
-3629.69
-592.577
-3481.85
-591.218
-3334.33
-589.914
-3187.13
-588.666
-3040.23
-587.472
-2893.61
-586.333
-2747.26
-585.249
-2601.18
-584.22
-2455.33
-583.246
-2309.72
-582.326
-2164.32
-581.46
-2019.13
-580.649
-1874.13
-579.893
-1729.3
-579.191
-1584.63
-578.543
-1440.12
-577.95
-1295.74
-577.411
-1151.48
-576.928
-1007.32
-576.5
-863.263
-576.129
-719.282
-575.817
-575.364
-575.565
-431.493
-575.376
-287.654
-575.25
-143.829
-575.19
-575.195
-1420.46
7241.37
-2840.14
7239.31
-4258.01
7229.55
-5672.92
7212.5
-7083.75
7188.15
-8489.34
7156.24
-9888.5
7116.51
-11280
7068.79
-12662.7
7013.1
-14035.3
6949.66
-15396.6
6878.84
-16745.4
6801.08
-18080.4
6716.74
-19400.5
6626.04
-20704.3
6529.06
-21990.6
6425.83
-23258.2
6316.45
-24505.7
6201.13
-25731.9
6080.23
-26935.6
5954.22
-28115.5
5823.61
-29270.5
5688.99
-30399.8
5550.98
-31502.2
5410.24
-32577
5267.44
-33623.5
5123.25
-34641.1
4978.31
-35629.4
4833.19
-36588
4688.4
-37516.9
4544.4
-38416
4401.58
-39285.4
4260.28
-40125.2
4120.79
-40935.8
3983.36
-41717.6
3848.16
-42471.1
3715.34
-43196.9
3584.97
-43895.4
3457.06
-44567.4
3331.6
-45213.4
3208.53
-45834.2
3087.77
-46430.1
2969.23
-47002
2852.83
-47550.2
2738.46
-48075.4
2626.02
-48578
2515.41
-49058.5
2406.54
-49517.3
2299.3
-49954.8
2193.64
-50371.3
2089.49
-50767.1
1986.8
-51142.7
1885.56
-51498.2
1785.74
-51834.1
1687.34
-52150.5
1590.37
-52447.8
1494.82
-52726.3
1400.72
-52986.3
1308.07
-53228
1216.88
-53451.8
1127.18
-53658
1038.97
-53846.9
952.269
-54018.7
867.091
-54173.8
783.446
-54312.5
701.345
-54435.2
620.797
-54542
541.81
-54633.4
464.39
-54709.6
388.543
-54771
314.273
-54817.9
241.582
-54850.6
170.473
-54869.4
100.946
-54874.6
32.9989
-54866.6
-33.3694
-54845.7
-98.1622
-54812.1
-161.384
-54766.2
-223.04
-54708.4
-283.136
-54638.8
-341.681
-54557.9
-398.682
-54465.9
-454.149
-54363.2
-508.093
-54250
-560.524
-54126.6
-611.455
-53993.4
-660.899
-53850.7
-708.869
-53698.6
-755.381
-53537.6
-800.45
-53367.8
-844.091
-53189.7
-886.322
-53003.4
-927.16
-52809.2
-966.623
-52607.5
-1004.73
-52398.4
-1041.5
-52182.3
-1076.95
-51959.4
-1111.1
-51729.9
-1143.97
-51494.1
-1175.59
-51252.3
-1205.97
-51004.7
-1235.14
-50751.5
-1263.11
-50493
-1289.91
-50229.4
-1315.57
-49960.9
-1340.09
-49687.8
-1363.51
-49410.2
-1385.85
-49128.3
-1407.13
-48842.5
-1427.38
-48552.8
-1446.6
-48259.6
-1464.84
-47962.9
-1482.11
-47662.9
-1498.43
-47359.9
-1513.83
-47054
-1528.32
-46745.4
-1541.94
-46434.3
-1554.69
-46120.8
-1566.62
-45805.2
-1577.73
-45487.4
-1588.04
-45167.8
-1597.59
-44846.5
-1606.39
-44523.5
-1614.45
-44199.2
-1621.81
-43873.4
-1628.49
-43546.5
-1634.49
-43218.6
-1639.85
-42889.7
-1644.58
-42560
-1648.7
-42229.6
-1652.23
-41898.7
-1655.2
-41567.2
-1657.61
-41235.4
-1659.48
-40903.4
-1660.84
-40571.2
-1661.7
-40238.9
-1662.08
-39906.6
-1661.99
-39574.5
-1661.46
-39242.6
-1660.49
-38910.9
-1659.11
-38579.7
-1657.32
-38248.8
-1655.15
-37918.5
-1652.61
-37588.8
-1649.71
-37259.7
-1646.47
-36931.3
-1642.9
-36603.8
-1639.01
-36277
-1634.82
-35951.2
-1630.35
-35626.3
-1625.59
-35302.4
-1620.57
-34979.6
-1615.3
-34657.9
-1609.79
-34337.4
-1604.05
-34018
-1598.09
-33699.9
-1591.92
-33383
-1585.55
-33067.5
-1579
-32753.3
-1572.27
-32440.5
-1565.37
-32129.1
-1558.31
-31819.1
-1551.1
-31510.6
-1543.75
-31203.7
-1536.26
-30898.2
-1528.66
-30594.3
-1520.93
-30291.9
-1513.1
-29991.1
-1505.16
-29692
-1497.13
-29394.4
-1489.02
-29098.5
-1480.82
-28804.2
-1472.55
-28511.7
-1464.21
-28220.7
-1455.81
-27931.5
-1447.36
-27644
-1438.85
-27358.2
-1430.31
-27074.1
-1421.72
-26791.7
-1413.1
-26511
-1404.45
-26232.1
-1395.78
-25954.9
-1387.09
-25679.4
-1378.38
-25405.7
-1369.66
-25133.7
-1360.94
-24863.5
-1352.21
-24595
-1343.49
-24328.3
-1334.77
-24063.3
-1326.06
-23800
-1317.37
-23538.4
-1308.69
-23278.6
-1300.03
-23020.5
-1291.39
-22764.1
-1282.77
-22509.5
-1274.18
-22256.5
-1265.63
-22005.3
-1257.1
-21755.7
-1248.61
-21507.9
-1240.16
-21261.7
-1231.75
-21017.1
-1223.38
-20774.3
-1215.06
-20533.1
-1206.78
-20293.5
-1198.55
-20055.6
-1190.37
-19819.3
-1182.24
-19584.6
-1174.16
-19351.5
-1166.14
-19120
-1158.17
-18890
-1150.26
-18661.7
-1142.42
-18434.9
-1134.63
-18209.6
-1126.9
-17985.9
-1119.23
-17763.7
-1111.63
-17542.9
-1104.09
-17323.7
-1096.62
-17106
-1089.22
-16889.7
-1081.88
-16674.9
-1074.61
-16461.5
-1067.41
-16249.5
-1060.28
-16039
-1053.21
-15829.8
-1046.22
-15622
-1039.3
-15415.6
-1032.46
-15210.6
-1025.68
-15006.9
-1018.98
-14804.5
-1012.35
-14603.4
-1005.79
-14403.6
-999.312
-14205.1
-992.905
-14007.8
-986.572
-13811.8
-980.314
-13617.1
-974.131
-13423.6
-968.024
-13231.2
-961.992
-13040.1
-956.036
-12850.1
-950.155
-12661.3
-944.351
-12473.6
-938.622
-12287.1
-932.97
-12101.7
-927.393
-11917.4
-921.893
-11734.1
-916.469
-11552
-911.122
-11370.9
-905.85
-11190.8
-900.655
-11011.7
-895.536
-10833.7
-890.493
-10656.6
-885.526
-10480.6
-880.634
-10305.5
-875.819
-10131.3
-871.08
-9958.09
-866.416
-9785.78
-861.828
-9614.37
-857.316
-9443.85
-852.878
-9274.21
-848.516
-9105.42
-844.229
-8937.47
-840.017
-8770.36
-835.88
-8604.05
-831.817
-8438.55
-827.829
-8273.82
-823.915
-8109.87
-820.075
-7946.67
-816.31
-7784.2
-812.618
-7622.47
-808.999
-7461.44
-805.454
-7301.1
-801.982
-7141.45
-798.584
-6982.46
-795.258
-6824.12
-792.005
-6666.43
-788.824
-6509.35
-785.716
-6352.88
-782.68
-6197
-779.715
-6041.71
-776.823
-5886.97
-774.002
-5732.79
-771.253
-5579.15
-768.575
-5426.02
-765.968
-5273.41
-763.432
-5121.29
-760.967
-4969.64
-758.572
-4818.47
-756.248
-4667.74
-753.994
-4517.45
-751.81
-4367.59
-749.696
-4218.14
-747.652
-4069.08
-745.677
-3920.4
-743.772
-3772.09
-741.936
-3624.13
-740.17
-3476.52
-738.472
-3329.23
-736.844
-3182.25
-735.284
-3035.57
-733.793
-2889.18
-732.371
-2743.06
-731.017
-2597.19
-729.731
-2451.57
-728.514
-2306.18
-727.365
-2161.01
-726.284
-2016.04
-725.271
-1871.26
-724.326
-1726.65
-723.449
-1582.21
-722.64
-1437.91
-721.899
-1293.75
-721.226
-1149.71
-720.622
-1005.78
-720.088
-861.941
-719.625
-718.18
-719.235
-574.482
-718.92
-430.832
-718.683
-287.212
-718.528
-143.607
-718.453
-718.46
-1402.28
8642.32
-2803.78
8639.47
-4203.57
8628
-5600.67
8608.27
-6994.13
8580.26
-8382.94
8543.71
-9766.1
8498.32
-11142.6
8443.93
-12511.4
8380.53
-13871.5
8308.33
-15221.7
8227.67
-16561
8138.97
-17888.2
8042.56
-19202.2
7938.64
-20501.8
7827.25
-21785.8
7708.41
-23052.9
7582.18
-24301.9
7448.76
-25531.6
7308.48
-26740.6
7161.82
-27927.7
7009.33
-29091.7
6851.61
-30231.4
6689.33
-31345.7
6523.22
-32433.6
6354.02
-33494.1
6182.49
-34526.5
6009.38
-35529.9
5835.39
-36503.9
5661.16
-37448
5487.28
-38361.9
5314.28
-39245.5
5142.67
-40098.7
4972.86
-40921.7
4805.25
-41714.8
4640.16
-42478.4
4477.85
-43212.9
4318.47
-43919
4162.14
-44597.3
4008.89
-45248.5
3858.69
-45873.2
3711.51
-46472.2
3567.25
-47046.1
3425.82
-47595.7
3287.09
-48121.5
3150.93
-48624.2
3017.21
-49104.3
2885.77
-49562.4
2756.48
-49998.9
2629.22
-50414.1
2503.9
-50808.6
2380.43
-51182.7
2258.77
-51536.7
2138.87
-51870.9
2020.72
-52185.6
1904.3
-52481.2
1789.62
-52758
1676.69
-53016.2
1565.51
-53256.2
1456.1
-53478.3
1348.48
-53682.7
1242.65
-53869.8
1138.64
-54039.9
1036.46
-54193.3
936.121
-54330.3
837.636
-54451.3
741.017
-54556.4
646.273
-54646.1
553.411
-54720.7
462.439