/*--------------------------------*- C++ -*----------------------------------*\
| =========                 |                                                 |
| \\      /  F ield         | OpenFOAM: The Open Source CFD Toolbox           |
|  \\    /   O peration     | Version:  2212                                  |
|   \\  /    A nd           | Website:  www.openfoam.com                      |
|    \\/     M anipulation  |                                                 |
\*---------------------------------------------------------------------------*/
FoamFile
{
    version     2.0;
    format      ascii;
    arch        "LSB;label=32;scalar=64";
    class       volScalarField;
    location    "390";
    object      p_rgh;
}
// * * * * * * * * * * * * * * * * * * * * * * * * * * * * * * * * * * * * * //

dimensions      [1 -1 -2 0 0 0 0];

internalField   nonuniform List<scalar> 
204800
(
26.6279
26.6151
26.5898
26.5523
26.5027
26.4418
26.3697
26.2872
26.1949
26.0932
25.983
25.8647
25.7391
25.6068
25.4682
25.324
25.1747
25.0208
24.8628
24.701
24.5359
24.3678
24.1971
24.0242
23.8494
23.6729
23.495
23.3161
23.1363
22.956
22.7754
22.5947
22.4142
22.234
22.0544
21.8756
21.6977
21.521
21.3457
21.1719
20.9997
20.8294
20.6611
20.4949
20.3311
20.1696
20.0107
19.8545
19.701
19.5505
19.403
19.2586
19.1174
18.9795
18.8449
18.7138
18.5863
18.4623
18.342
18.2254
18.1126
18.0036
17.8984
17.7972
17.6998
17.6065
17.5171
17.4317
17.3503
17.273
17.1997
17.1305
17.0653
17.0041
16.947
16.8939
16.8449
16.7998
16.7587
16.7216
16.6884
16.6591
16.6336
16.6121
16.5943
16.5803
16.57
16.5634
16.5604
16.5611
16.5653
16.5729
16.5841
16.5986
16.6165
16.6376
16.662
16.6896
16.7203
16.754
16.7907
16.8304
16.873
16.9183
16.9664
17.0172
17.0707
17.1267
17.1852
17.2461
17.3094
17.3751
17.4429
17.513
17.5852
17.6594
17.7357
17.8139
17.8939
17.9758
18.0595
18.1448
18.2318
18.3203
18.4104
18.5019
18.5948
18.6891
18.7846
18.8814
18.9794
19.0785
19.1787
19.28
19.3822
19.4853
19.5893
19.6941
19.7997
19.9061
20.0131
20.1208
20.229
20.3379
20.4472
20.5571
20.6673
20.778
20.889
21.0003
21.1119
21.2238
21.3358
21.448
21.5604
21.6729
21.7855
21.8981
22.0107
22.1233
22.2359
22.3484
22.4608
22.5731
22.6852
22.7972
22.909
23.0205
23.1318
23.2428
23.3536
23.464
23.5741
23.6839
23.7933
23.9023
24.0108
24.119
24.2268
24.334
24.4408
24.5472
24.653
24.7583
24.8631
24.9673
25.071
25.1742
25.2767
25.3787
25.48
25.5808
25.6809
25.7804
25.8793
25.9775
26.0751
26.172
26.2682
26.3638
26.4586
26.5528
26.6463
26.739
26.8311
26.9224
27.013
27.1029
27.192
27.2804
27.368
27.4549
27.5411
27.6265
27.7111
27.795
27.8781
27.9604
28.042
28.1228
28.2028
28.282
28.3604
28.438
28.5149
28.591
28.6662
28.7407
28.8144
28.8873
28.9594
29.0307
29.1012
29.1708
29.2397
29.3078
29.3751
29.4415
29.5072
29.572
29.6361
29.6993
29.7617
29.8233
29.8841
29.9441
30.0033
30.0617
30.1193
30.176
30.232
30.2871
30.3414
30.3949
30.4476
30.4995
30.5506
30.6009
30.6503
30.699
30.7469
30.7939
30.8401
30.8855
30.9302
30.974
31.017
31.0592
31.1005
31.1411
31.1809
31.2199
31.258
31.2954
31.332
31.3677
31.4027
31.4368
31.4702
31.5028
31.5345
31.5655
31.5956
31.625
31.6535
31.6813
31.7082
31.7344
31.7597
31.7843
31.8081
31.8311
31.8532
31.8746
31.8952
31.915
31.934
31.9522
31.9696
31.9862
32.0021
32.0171
32.0313
32.0448
32.0574
32.0693
32.0804
32.0906
32.1001
32.1088
32.1167
32.1238
32.1302
32.1357
32.1404
32.1444
32.1476
32.1499
32.1515
32.1523
26.6145
26.6006
26.5733
26.5329
26.4799
26.4151
26.3391
26.2528
26.1568
26.0519
25.9389
25.8183
25.6908
25.557
25.4173
25.2723
25.1224
24.9681
24.8099
24.648
24.483
24.315
24.1445
23.9719
23.7973
23.621
23.4435
23.2649
23.0855
22.9055
22.7253
22.545
22.3648
22.1849
22.0057
21.8272
21.6498
21.4734
21.2984
21.125
20.9532
20.7832
20.6152
20.4494
20.2859
20.1248
19.9662
19.8103
19.6572
19.507
19.3598
19.2157
19.0748
18.9371
18.8029
18.6721
18.5448
18.4211
18.3011
18.1847
18.0722
17.9634
17.8585
17.7575
17.6603
17.5672
17.478
17.3928
17.3117
17.2345
17.1614
17.0923
17.0273
16.9663
16.9094
16.8564
16.8075
16.7625
16.7216
16.6846
16.6515
16.6223
16.5969
16.5754
16.5577
16.5438
16.5336
16.527
16.5241
16.5248
16.529
16.5367
16.5479
16.5624
16.5803
16.6015
16.6259
16.6534
16.6841
16.7178
16.7545
16.7941
16.8366
16.882
16.93
16.9808
17.0342
17.0901
17.1485
17.2094
17.2726
17.3382
17.406
17.4759
17.548
17.6222
17.6983
17.7764
17.8563
17.9381
18.0216
18.1068
18.1937
18.2821
18.372
18.4634
18.5562
18.6503
18.7457
18.8424
18.9402
19.0391
19.1392
19.2402
19.3423
19.4452
19.5491
19.6537
19.7592
19.8653
19.9722
20.0797
20.1878
20.2964
20.4056
20.5152
20.6253
20.7358
20.8466
20.9577
21.0691
21.1808
21.2927
21.4047
21.5169
21.6292
21.7416
21.854
21.9664
22.0788
22.1912
22.3035
22.4157
22.5278
22.6398
22.7515
22.8631
22.9744
23.0855
23.1964
23.3069
23.4171
23.527
23.6366
23.7458
23.8546
23.963
24.071
24.1785
24.2856
24.3922
24.4984
24.604
24.7091
24.8137
24.9178
25.0213
25.1242
25.2266
25.3283
25.4295
25.5301
25.63
25.7294
25.8281
25.9261
26.0235
26.1202
26.2162
26.3116
26.4063
26.5003
26.5936
26.6862
26.778
26.8692
26.9596
27.0493
27.1383
27.2265
27.314
27.4008
27.4867
27.572
27.6564
27.7402
27.8231
27.9053
27.9867
28.0673
28.1471
28.2262
28.3045
28.382
28.4587
28.5346
28.6098
28.6841
28.7576
28.8304
28.9023
28.9735
29.0438
29.1134
29.1821
29.2501
29.3172
29.3836
29.4491
29.5138
29.5777
29.6408
29.7032
29.7646
29.8253
29.8852
29.9443
30.0025
30.06
30.1166
30.1725
30.2275
30.2817
30.3351
30.3877
30.4395
30.4905
30.5407
30.5901
30.6386
30.6864
30.7333
30.7795
30.8248
30.8693
30.913
30.956
30.9981
31.0394
31.0799
31.1196
31.1585
31.1966
31.2339
31.2704
31.3061
31.3409
31.375
31.4083
31.4408
31.4725
31.5034
31.5335
31.5628
31.5913
31.619
31.6459
31.672
31.6973
31.7218
31.7455
31.7685
31.7906
31.8119
31.8325
31.8522
31.8712
31.8894
31.9068
31.9233
31.9391
31.9541
31.9683
31.9818
31.9944
32.0062
32.0173
32.0275
32.037
32.0457
32.0536
32.0607
32.067
32.0725
32.0773
32.0812
32.0844
32.0867
32.0883
32.0891
26.5905
26.5769
26.5497
26.5097
26.457
26.3926
26.317
26.2311
26.1354
26.0309
25.9181
25.7977
25.6704
25.5367
25.3971
25.2522
25.1024
24.9481
24.7899
24.6281
24.4631
24.2952
24.1247
23.9521
23.7775
23.6014
23.4239
23.2454
23.066
22.8861
22.706
22.5257
22.3456
22.1659
21.9867
21.8083
21.6309
21.4547
21.2798
21.1064
20.9347
20.7649
20.597
20.4313
20.2678
20.1068
19.9484
19.7926
19.6396
19.4894
19.3423
19.1983
19.0575
18.92
18.7859
18.6552
18.528
18.4044
18.2845
18.1682
18.0558
17.9471
17.8423
17.7413
17.6443
17.5513
17.4622
17.3771
17.2961
17.219
17.146
17.0771
17.0121
16.9512
16.8944
16.8415
16.7927
16.7479
16.707
16.6701
16.6371
16.608
16.5827
16.5613
16.5437
16.5299
16.5198
16.5133
16.5105
16.5113
16.5156
16.5234
16.5346
16.5493
16.5672
16.5885
16.613
16.6406
16.6713
16.7051
16.7419
16.7817
16.8243
16.8696
16.9178
16.9686
17.0221
17.0781
17.1366
17.1975
17.2608
17.3265
17.3943
17.4643
17.5365
17.6107
17.6869
17.7651
17.8451
17.9269
18.0105
18.0957
18.1826
18.2711
18.3611
18.4525
18.5453
18.6395
18.735
18.8317
18.9296
19.0286
19.1286
19.2297
19.3318
19.4348
19.5387
19.6434
19.7488
19.855
19.9619
20.0695
20.1776
20.2863
20.3955
20.5051
20.6152
20.7257
20.8366
20.9477
21.0592
21.1708
21.2827
21.3948
21.507
21.6193
21.7317
21.8441
21.9566
22.069
22.1814
22.2937
22.4059
22.518
22.63
22.7417
22.8533
22.9647
23.0758
23.1866
23.2971
23.4074
23.5173
23.6269
23.736
23.8449
23.9532
24.0612
24.1688
24.2759
24.3825
24.4886
24.5942
24.6993
24.8039
24.908
25.0115
25.1144
25.2168
25.3185
25.4197
25.5203
25.6202
25.7195
25.8182
25.9162
26.0136
26.1103
26.2064
26.3017
26.3964
26.4904
26.5836
26.6762
26.7681
26.8592
26.9496
27.0393
27.1283
27.2165
27.304
27.3907
27.4767
27.5619
27.6464
27.73
27.813
27.8951
27.9765
28.0571
28.137
28.216
28.2943
28.3718
28.4485
28.5244
28.5995
28.6738
28.7473
28.8201
28.892
28.9631
29.0335
29.103
29.1718
29.2397
29.3068
29.3731
29.4386
29.5034
29.5673
29.6304
29.6926
29.7541
29.8148
29.8747
29.9337
29.992
30.0494
30.106
30.1619
30.2169
30.2711
30.3245
30.3771
30.4289
30.4798
30.53
30.5793
30.6279
30.6756
30.7226
30.7687
30.814
30.8585
30.9022
30.9451
30.9872
31.0285
31.069
31.1087
31.1476
31.1857
31.223
31.2595
31.2951
31.33
31.3641
31.3974
31.4299
31.4615
31.4924
31.5225
31.5518
31.5803
31.608
31.6349
31.661
31.6863
31.7108
31.7345
31.7574
31.7796
31.8009
31.8214
31.8412
31.8601
31.8783
31.8957
31.9123
31.928
31.943
31.9573
31.9707
31.9833
31.9951
32.0062
32.0164
32.0259
32.0346
32.0425
32.0496
32.0559
32.0614
32.0661
32.0701
32.0732
32.0756
32.0772
32.078
26.5525
26.5386
26.5107
26.4695
26.4155
26.3496
26.2723
26.1847
26.0875
25.9815
25.8673
25.7457
25.6174
25.4828
25.3425
25.197
25.0468
24.8923
24.734
24.5721
24.407
24.2392
24.0689
23.8964
23.722
23.5461
23.3688
23.1906
23.0115
22.8319
22.652
22.4721
22.2923
22.1129
21.9341
21.756
21.579
21.4031
21.2285
21.0554
20.8841
20.7146
20.547
20.3816
20.2185
20.0579
19.8997
19.7442
19.5915
19.4418
19.295
19.1513
19.0108
18.8736
18.7397
18.6093
18.4824
18.3591
18.2395
18.1235
18.0113
17.9029
17.7984
17.6977
17.601
17.5082
17.4194
17.3345
17.2537
17.1769
17.1041
17.0354
16.9707
16.91
16.8533
16.8007
16.7521
16.7074
16.6667
16.63
16.5972
16.5683
16.5432
16.522
16.5045
16.4908
16.4808
16.4745
16.4719
16.4728
16.4772
16.4851
16.4965
16.5112
16.5293
16.5507
16.5752
16.603
16.6338
16.6677
16.7046
16.7444
16.787
16.8325
16.8807
16.9316
16.9851
17.0411
17.0997
17.1606
17.224
17.2896
17.3575
17.4276
17.4997
17.574
17.6502
17.7283
17.8083
17.8901
17.9737
18.0589
18.1458
18.2343
18.3242
18.4156
18.5084
18.6026
18.698
18.7946
18.8925
18.9914
19.0915
19.1925
19.2945
19.3975
19.5013
19.6059
19.7113
19.8174
19.9242
20.0317
20.1397
20.2483
20.3575
20.467
20.577
20.6874
20.7982
20.9093
21.0206
21.1322
21.244
21.3559
21.468
21.5802
21.6925
21.8048
21.9172
22.0295
22.1418
22.254
22.3661
22.4781
22.5899
22.7015
22.813
22.9242
23.0352
23.1459
23.2564
23.3665
23.4763
23.5857
23.6948
23.8034
23.9117
24.0196
24.127
24.2339
24.3404
24.4464
24.5519
24.6569
24.7614
24.8653
24.9687
25.0715
25.1737
25.2753
25.3764
25.4768
25.5766
25.6758
25.7744
25.8723
25.9695
26.0661
26.162
26.2572
26.3518
26.4456
26.5388
26.6312
26.723
26.814
26.9043
26.9939
27.0827
27.1708
27.2581
27.3447
27.4306
27.5157
27.6
27.6836
27.7664
27.8485
27.9297
28.0102
28.0899
28.1689
28.247
28.3244
28.401
28.4768
28.5518
28.626
28.6994
28.7721
28.8439
28.9149
28.9852
29.0546
29.1232
29.191
29.2581
29.3243
29.3897
29.4543
29.5181
29.5811
29.6433
29.7047
29.7653
29.8251
29.884
29.9422
29.9996
30.0561
30.1118
30.1668
30.2209
30.2742
30.3267
30.3784
30.4293
30.4794
30.5287
30.5771
30.6248
30.6717
30.7177
30.763
30.8074
30.8511
30.8939
30.9359
30.9772
31.0176
31.0572
31.096
31.1341
31.1713
31.2077
31.2433
31.2782
31.3122
31.3454
31.3778
31.4095
31.4403
31.4703
31.4996
31.528
31.5557
31.5825
31.6086
31.6339
31.6583
31.682
31.7049
31.727
31.7483
31.7688
31.7885
31.8074
31.8256
31.8429
31.8595
31.8752
31.8902
31.9044
31.9178
31.9304
31.9422
31.9532
31.9635
31.9729
31.9816
31.9895
31.9965
32.0028
32.0084
32.0131
32.017
32.0202
32.0225
32.0241
32.0249
26.5072
26.4935
26.4661
26.4255
26.3723
26.3072
26.2308
26.144
26.0476
25.9422
25.8286
25.7076
25.5796
25.4454
25.3053
25.1601
25.01
24.8557
24.6974
24.5356
24.3706
24.2029
24.0326
23.8602
23.6859
23.5101
23.333
23.1548
22.9759
22.7964
22.6166
22.4368
22.2572
22.0779
21.8993
21.7214
21.5445
21.3687
21.1943
21.0214
20.8502
20.6809
20.5135
20.3483
20.1854
20.0249
19.8669
19.7116
19.5591
19.4095
19.2629
19.1194
18.9791
18.8421
18.7084
18.5782
18.4515
18.3284
18.2089
18.0932
17.9812
17.873
17.7686
17.6681
17.5716
17.479
17.3903
17.3057
17.2251
17.1484
17.0759
17.0073
16.9428
16.8823
16.8259
16.7734
16.725
16.6805
16.64
16.6035
16.5709
16.5421
16.5172
16.4962
16.4789
16.4654
16.4557
16.4495
16.447
16.4481
16.4528
16.4609
16.4724
16.4873
16.5056
16.5271
16.5519
16.5798
16.6108
16.6448
16.6819
16.7219
16.7647
16.8103
16.8587
16.9097
16.9634
17.0196
17.0783
17.1394
17.2029
17.2687
17.3367
17.4069
17.4792
17.5536
17.63
17.7082
17.7884
17.8703
17.954
18.0394
18.1264
18.2149
18.305
18.3965
18.4895
18.5837
18.6792
18.776
18.8739
18.973
19.0731
19.1743
19.2764
19.3794
19.4833
19.588
19.6935
19.7997
19.9066
20.0141
20.1223
20.2309
20.3401
20.4498
20.5598
20.6703
20.7811
20.8922
21.0036
21.1153
21.2271
21.3391
21.4513
21.5635
21.6759
21.7882
21.9006
22.013
22.1253
22.2375
22.3497
22.4617
22.5735
22.6852
22.7967
22.908
23.019
23.1297
23.2401
23.3503
23.4601
23.5695
23.6786
23.7873
23.8956
24.0035
24.1109
24.2179
24.3243
24.4304
24.5359
24.6409
24.7453
24.8493
24.9526
25.0554
25.1577
25.2593
25.3603
25.4608
25.5606
25.6598
25.7583
25.8562
25.9534
26.05
26.1459
26.2411
26.3357
26.4295
26.5227
26.6151
26.7068
26.7978
26.8881
26.9777
27.0665
27.1545
27.2419
27.3285
27.4143
27.4994
27.5837
27.6673
27.7501
27.8321
27.9133
27.9938
28.0735
28.1524
28.2306
28.3079
28.3845
28.4603
28.5353
28.6095
28.6829
28.7555
28.8273
28.8983
28.9685
29.0379
29.1065
29.1743
29.2413
29.3075
29.3729
29.4375
29.5013
29.5643
29.6265
29.6878
29.7484
29.8081
29.8671
29.9252
29.9826
30.0391
30.0948
30.1497
30.2038
30.2571
30.3096
30.3613
30.4121
30.4622
30.5115
30.5599
30.6076
30.6544
30.7004
30.7457
30.7901
30.8337
30.8766
30.9186
30.9598
31.0002
31.0398
31.0786
31.1166
31.1538
31.1902
31.2259
31.2607
31.2947
31.3279
31.3603
31.3919
31.4227
31.4528
31.482
31.5104
31.5381
31.5649
31.5909
31.6162
31.6407
31.6643
31.6872
31.7093
31.7306
31.7511
31.7708
31.7897
31.8078
31.8252
31.8417
31.8575
31.8724
31.8866
31.9
31.9126
31.9244
31.9354
31.9457
31.9551
31.9638
31.9716
31.9787
31.985
31.9905
31.9953
31.9992
32.0023
32.0047
32.0063
32.0071
26.4491
26.4354
26.4079
26.3672
26.3138
26.2485
26.1718
26.0848
25.988
25.8823
25.7684
25.6469
25.5187
25.3841
25.2439
25.0984
24.9482
24.7937
24.6354
24.4736
24.3086
24.1409
23.9708
23.7985
23.6244
23.4488
23.2719
23.0939
22.9152
22.7361
22.5566
22.3771
22.1977
22.0188
21.8404
21.6628
21.4863
21.3108
21.1368
20.9642
20.7934
20.6244
20.4573
20.2925
20.1299
19.9697
19.8121
19.6571
19.505
19.3557
19.2094
19.0662
18.9263
18.7896
18.6562
18.5263
18.4
18.2772
18.158
18.0426
17.9309
17.823
17.719
17.6188
17.5225
17.4302
17.3419
17.2576
17.1772
17.1009
17.0286
16.9603
16.8961
16.8359
16.7797
16.7276
16.6794
16.6352
16.595
16.5587
16.5263
16.4978
16.4732
16.4524
16.4354
16.4221
16.4126
16.4067
16.4044
16.4057
16.4106
16.4189
16.4307
16.4458
16.4643
16.486
16.511
16.5391
16.5703
16.6045
16.6417
16.6818
16.7248
16.7706
16.8192
16.8704
16.9242
16.9805
17.0394
17.1007
17.1643
17.2302
17.2984
17.3687
17.4411
17.5156
17.5921
17.6705
17.7507
17.8327
17.9165
18.002
18.0891
18.1777
18.2679
18.3595
18.4525
18.5468
18.6424
18.7392
18.8372
18.9363
19.0365
19.1376
19.2398
19.3429
19.4468
19.5515
19.657
19.7633
19.8702
19.9777
20.0859
20.1945
20.3037
20.4134
20.5235
20.6339
20.7447
20.8558
20.9672
21.0788
21.1907
21.3027
21.4148
21.527
21.6393
21.7516
21.864
21.9763
22.0886
22.2008
22.3129
22.4249
22.5367
22.6483
22.7597
22.8709
22.9819
23.0926
23.203
23.313
23.4228
23.5322
23.6412
23.7498
23.858
23.9658
24.0732
24.1801
24.2865
24.3925
24.4979
24.6028
24.7072
24.8111
24.9143
25.0171
25.1192
25.2208
25.3217
25.4221
25.5218
25.6209
25.7194
25.8172
25.9143
26.0108
26.1067
26.2018
26.2962
26.39
26.4831
26.5754
26.6671
26.758
26.8482
26.9376
27.0264
27.1144
27.2016
27.2881
27.3739
27.4589
27.5431
27.6266
27.7093
27.7912
27.8724
27.9528
28.0324
28.1112
28.1893
28.2665
28.343
28.4187
28.4936
28.5677
28.6411
28.7136
28.7853
28.8562
28.9264
28.9957
29.0642
29.132
29.1989
29.265
29.3303
29.3948
29.4586
29.5215
29.5836
29.6449
29.7053
29.765
29.8239
29.882
29.9392
29.9957
30.0513
30.1062
30.1602
30.2134
30.2659
30.3175
30.3683
30.4183
30.4675
30.5159
30.5635
30.6102
30.6562
30.7014
30.7458
30.7893
30.8321
30.8741
30.9152
30.9556
30.9952
31.0339
31.0719
31.109
31.1454
31.181
31.2157
31.2497
31.2829
31.3152
31.3468
31.3776
31.4076
31.4368
31.4651
31.4927
31.5196
31.5456
31.5708
31.5952
31.6188
31.6417
31.6637
31.685
31.7055
31.7252
31.7441
31.7622
31.7795
31.796
31.8117
31.8267
31.8408
31.8542
31.8668
31.8786
31.8896
31.8998
31.9092
31.9179
31.9257
31.9328
31.9391
31.9446
31.9493
31.9533
31.9564
31.9588
31.9603
31.9611
26.3849
26.3715
26.3446
26.3047
26.2523
26.188
26.1125
26.0266
25.9309
25.8262
25.7132
25.5926
25.465
25.331
25.1912
25.0461
24.8962
24.742
24.5839
24.4222
24.2574
24.0899
23.9199
23.7478
23.5738
23.3983
23.2215
23.0437
22.8652
22.6862
22.5069
22.3276
22.1484
21.9697
21.7915
21.6142
21.4378
21.2626
21.0888
20.9165
20.7458
20.5771
20.4103
20.2456
20.0833
19.9234
19.766
19.6113
19.4594
19.3103
19.1643
19.0214
18.8817
18.7452
18.6122
18.4825
18.3564
18.2339
18.115
17.9999
17.8884
17.7808
17.677
17.5771
17.4812
17.3891
17.3011
17.217
17.137
17.0609
16.9889
16.9209
16.857
16.797
16.7411
16.6893
16.6414
16.5975
16.5575
16.5215
16.4894
16.4612
16.4369
16.4164
16.3996
16.3866
16.3774
16.3718
16.3698
16.3714
16.3765
16.3851
16.3971
16.4125
16.4313
16.4533
16.4785
16.5068
16.5383
16.5728
16.6103
16.6507
16.6939
16.74
16.7888
16.8402
16.8943
16.9509
17.01
17.0715
17.1353
17.2015
17.2699
17.3404
17.4131
17.4878
17.5645
17.6431
17.7235
17.8058
17.8897
17.9754
18.0627
18.1515
18.2419
18.3336
18.4268
18.5213
18.6171
18.7141
18.8122
18.9115
19.0118
19.1132
19.2155
19.3187
19.4228
19.5277
19.6333
19.7397
19.8467
19.9544
20.0627
20.1715
20.2808
20.3906
20.5008
20.6113
20.7222
20.8335
20.945
21.0567
21.1686
21.2807
21.3929
21.5052
21.6176
21.73
21.8424
21.9548
22.0672
22.1794
22.2916
22.4036
22.5155
22.6272
22.7387
22.85
22.961
23.0717
23.1821
23.2923
23.402
23.5115
23.6205
23.7292
23.8375
23.9453
24.0527
24.1596
24.2661
24.372
24.4775
24.5824
24.6868
24.7907
24.894
24.9967
25.0989
25.2005
25.3014
25.4018
25.5015
25.6006
25.6991
25.7969
25.8941
25.9906
26.0864
26.1815
26.276
26.3697
26.4628
26.5551
26.6468
26.7377
26.8279
26.9173
27.006
27.094
27.1813
27.2678
27.3535
27.4385
27.5227
27.6062
27.6889
27.7708
27.8519
27.9323
28.0119
28.0907
28.1688
28.246
28.3225
28.3981
28.473
28.5471
28.6204
28.6929
28.7646
28.8355
28.9056
28.975
29.0435
29.1112
29.1781
29.2442
29.3095
29.374
29.4377
29.5005
29.5626
29.6239
29.6844
29.744
29.8029
29.8609
29.9181
29.9746
30.0302
30.085
30.139
30.1922
30.2446
30.2962
30.347
30.397
30.4462
30.4945
30.5421
30.5889
30.6348
30.68
30.7243
30.7679
30.8106
30.8526
30.8937
30.9341
30.9736
31.0123
31.0503
31.0874
31.1238
31.1593
31.194
31.228
31.2611
31.2935
31.3251
31.3558
31.3858
31.415
31.4433
31.4709
31.4977
31.5237
31.5489
31.5733
31.597
31.6198
31.6418
31.6631
31.6835
31.7032
31.7221
31.7402
31.7575
31.774
31.7897
31.8047
31.8188
31.8322
31.8448
31.8565
31.8676
31.8778
31.8872
31.8958
31.9037
31.9108
31.917
31.9225
31.9273
31.9312
31.9343
31.9367
31.9383
31.939
26.3094
26.2961
26.2694
26.23
26.178
26.1142
26.0393
25.9538
25.8586
25.7543
25.6416
25.5213
25.3939
25.2602
25.1205
24.9756
24.8258
24.6717
24.5137
24.3522
24.1875
24.0201
23.8502
23.6783
23.5045
23.3292
23.1527
22.9751
22.7969
22.6181
22.4391
22.2601
22.0812
21.9028
21.725
21.5479
21.3719
21.197
21.0235
20.8516
20.6813
20.5129
20.3464
20.1822
20.0202
19.8606
19.7036
19.5492
19.3977
19.249
19.1034
18.9608
18.8215
18.6854
18.5527
18.4234
18.2977
18.1755
18.057
17.9422
17.8311
17.7238
17.6204
17.5209
17.4253
17.3336
17.2459
17.1622
17.0825
17.0068
16.9351
16.8675
16.8039
16.7443
16.6888
16.6372
16.5897
16.5461
16.5065
16.4709
16.4391
16.4113
16.3872
16.3671
16.3506
16.338
16.329
16.3238
16.3221
16.324
16.3294
16.3384
16.3507
16.3664
16.3854
16.4077
16.4332
16.4619
16.4936
16.5284
16.5662
16.6069
16.6504
16.6967
16.7458
16.7975
16.8518
16.9086
16.968
17.0297
17.0938
17.1602
17.2288
17.2996
17.3725
17.4474
17.5243
17.6031
17.6838
17.7662
17.8504
17.9362
18.0237
18.1127
18.2032
18.2952
18.3885
18.4832
18.5791
18.6763
18.7746
18.874
18.9745
19.0759
19.1784
19.2817
19.3859
19.4909
19.5967
19.7032
19.8103
19.9181
20.0264
20.1353
20.2447
20.3546
20.4649
20.5755
20.6865
20.7978
20.9093
21.0211
21.1331
21.2452
21.3575
21.4698
21.5823
21.6947
21.8072
21.9196
22.032
22.1443
22.2565
22.3685
22.4804
22.5921
22.7036
22.8149
22.9259
23.0367
23.1471
23.2572
23.367
23.4764
23.5855
23.6941
23.8024
23.9102
24.0175
24.1245
24.2309
24.3368
24.4423
24.5472
24.6516
24.7554
24.8587
24.9614
25.0635
25.165
25.266
25.3663
25.466
25.5651
25.6635
25.7613
25.8584
25.9548
26.0506
26.1457
26.2401
26.3338
26.4268
26.5191
26.6106
26.7015
26.7916
26.881
26.9697
27.0576
27.1448
27.2313
27.3169
27.4019
27.486
27.5694
27.6521
27.7339
27.815
27.8953
27.9749
28.0536
28.1316
28.2088
28.2852
28.3608
28.4356
28.5097
28.5829
28.6553
28.727
28.7978
28.8679
28.9371
29.0056
29.0732
29.1401
29.2061
29.2714
29.3358
29.3994
29.4622
29.5243
29.5855
29.6459
29.7055
29.7643
29.8223
29.8795
29.9358
29.9914
30.0462
30.1001
30.1533
30.2056
30.2572
30.3079
30.3578
30.407
30.4553
30.5028
30.5495
30.5954
30.6405
30.6848
30.7283
30.771
30.8129
30.854
30.8943
30.9338
30.9725
31.0104
31.0475
31.0838
31.1193
31.154
31.1879
31.2211
31.2534
31.2849
31.3156
31.3456
31.3747
31.4031
31.4306
31.4574
31.4833
31.5085
31.5329
31.5565
31.5793
31.6013
31.6226
31.643
31.6626
31.6815
31.6996
31.7168
31.7333
31.7491
31.764
31.7781
31.7915
31.804
31.8158
31.8268
31.837
31.8464
31.855
31.8629
31.8699
31.8762
31.8817
31.8864
31.8903
31.8935
31.8958
31.8974
31.8982
26.228
26.215
26.189
26.1504
26.0995
26.037
25.9633
25.8792
25.7853
25.6823
25.5708
25.4515
25.325
25.1921
25.0531
24.9088
24.7595
24.6058
24.4481
24.2869
24.1225
23.9553
23.7857
23.614
23.4404
23.2653
23.089
22.9116
22.7336
22.555
22.3763
22.1975
22.0189
21.8407
21.6631
21.4863
21.3106
21.136
20.9628
20.7911
20.6211
20.453
20.2868
20.1229
19.9612
19.8019
19.6452
19.4912
19.3399
19.1916
19.0462
18.904
18.765
18.6292
18.4968
18.3679
18.2425
18.1207
18.0025
17.888
17.7773
17.6704
17.5673
17.4681
17.3729
17.2815
17.1942
17.1108
17.0315
16.9562
16.8849
16.8176
16.7544
16.6952
16.64
16.5888
16.5416
16.4984
16.4592
16.4239
16.3925
16.365
16.3414
16.3216
16.3055
16.2933
16.2847
16.2798
16.2785
16.2807
16.2866
16.2958
16.3085
16.3246
16.344
16.3667
16.3925
16.4216
16.4537
16.4888
16.5269
16.5679
16.6118
16.6585
16.7078
16.7599
16.8145
16.8717
16.9314
16.9935
17.0579
17.1246
17.1935
17.2646
17.3378
17.413
17.4902
17.5693
17.6503
17.733
17.8175
17.9036
17.9913
18.0806
18.1714
18.2636
18.3572
18.4521
18.5483
18.6457
18.7443
18.8439
18.9446
19.0463
19.149
19.2525
19.3569
19.4621
19.5681
19.6748
19.7821
19.8901
19.9987
20.1077
20.2173
20.3273
20.4378
20.5486
20.6597
20.7712
20.8829
20.9948
21.1069
21.2192
21.3316
21.4441
21.5566
21.6692
21.7818
21.8943
22.0068
22.1192
22.2315
22.3437
22.4557
22.5675
22.6791
22.7904
22.9015
23.0124
23.1229
23.2331
23.3429
23.4524
23.5615
23.6703
23.7786
23.8864
23.9939
24.1008
24.2073
24.3133
24.4188
24.5237
24.6281
24.732
24.8353
24.9381
25.0402
25.1418
25.2428
25.3431
25.4428
25.5419
25.6404
25.7382
25.8353
25.9317
26.0275
26.1226
26.217
26.3108
26.4038
26.4961
26.5876
26.6785
26.7686
26.858
26.9467
27.0346
27.1218
27.2083
27.2939
27.3788
27.463
27.5464
27.629
27.7109
27.792
27.8723
27.9518
28.0305
28.1085
28.1857
28.2621
28.3377
28.4125
28.4865
28.5597
28.6321
28.7038
28.7746
28.8446
28.9138
28.9823
29.0499
29.1167
29.1827
29.248
29.3124
29.376
29.4388
29.5008
29.562
29.6224
29.6819
29.7407
29.7987
29.8558
29.9122
29.9677
30.0225
30.0764
30.1296
30.1819
30.2334
30.2841
30.334
30.3831
30.4314
30.4789
30.5256
30.5715
30.6166
30.6609
30.7043
30.747
30.7889
30.83
30.8702
30.9097
30.9484
30.9863
31.0234
31.0596
31.0951
31.1298
31.1637
31.1968
31.2291
31.2606
31.2913
31.3212
31.3504
31.3787
31.4062
31.433
31.4589
31.4841
31.5085
31.5321
31.5548
31.5769
31.5981
31.6185
31.6381
31.657
31.675
31.6923
31.7088
31.7245
31.7394
31.7535
31.7669
31.7794
31.7912
31.8022
31.8124
31.8218
31.8304
31.8382
31.8453
31.8516
31.8571
31.8618
31.8657
31.8688
31.8712
31.8728
31.8735
26.1364
26.1236
26.098
26.0601
26.01
25.9484
25.8757
25.7925
25.6996
25.5974
25.4868
25.3683
25.2425
25.1101
24.9717
24.8278
24.679
24.5256
24.3683
24.2073
24.0432
23.8763
23.7069
23.5354
23.362
23.1872
23.0111
22.8341
22.6563
22.4781
22.2996
22.1211
21.9428
21.765
21.5877
21.4113
21.2359
21.0617
20.8888
20.7175
20.5479
20.3801
20.2144
20.0508
19.8895
19.7306
19.5743
19.4206
19.2698
19.1218
18.9769
18.8351
18.6964
18.5611
18.4291
18.3006
18.1756
18.0542
17.9364
17.8223
17.712
17.6055
17.5029
17.4041
17.3093
17.2184
17.1314
17.0485
16.9696
16.8947
16.8238
16.757
16.6941
16.6354
16.5806
16.5298
16.4831
16.4403
16.4015
16.3666
16.3357
16.3086
16.2854
16.266
16.2504
16.2385
16.2304
16.2259
16.225
16.2277
16.2339
16.2436
16.2567
16.2732
16.2929
16.316
16.3423
16.3717
16.4042
16.4397
16.4782
16.5196
16.5638
16.6108
16.6606
16.713
16.768
16.8256
16.8856
16.948
17.0128
17.0798
17.1491
17.2205
17.294
17.3695
17.447
17.5264
17.6077
17.6907
17.7755
17.8619
17.9499
18.0395
18.1305
18.223
18.3168
18.412
18.5084
18.6061
18.7049
18.8047
18.9057
19.0076
19.1105
19.2142
19.3189
19.4243
19.5304
19.6373
19.7448
19.853
19.9617
20.071
20.1807
20.2909
20.4015
20.5124
20.6237
20.7353
20.8471
20.9592
21.0714
21.1838
21.2964
21.409
21.5216
21.6343
21.747
21.8596
21.9722
22.0847
22.1971
22.3093
22.4214
22.5333
22.6449
22.7564
22.8675
22.9784
23.089
23.1992
23.3091
23.4187
23.5278
23.6366
23.7449
23.8528
23.9603
24.0673
24.1738
24.2798
24.3853
24.4902
24.5947
24.6986
24.8019
24.9046
25.0068
25.1084
25.2093
25.3097
25.4094
25.5085
25.6069
25.7047
25.8018
25.8983
25.994
26.0891
26.1835
26.2772
26.3702
26.4625
26.554
26.6449
26.735
26.8244
26.913
27.0009
27.088
27.1744
27.2601
27.345
27.4291
27.5124
27.595
27.6769
27.7579
27.8382
27.9177
27.9964
28.0743
28.1514
28.2278
28.3033
28.3781
28.4521
28.5252
28.5976
28.6692
28.74
28.81
28.8792
28.9476
29.0151
29.0819
29.1479
29.2131
29.2774
29.341
29.4038
29.4657
29.5269
29.5872
29.6467
29.7055
29.7634
29.8205
29.8768
29.9323
29.987
30.0409
30.094
30.1463
30.1978
30.2484
30.2983
30.3474
30.3956
30.4431
30.4897
30.5356
30.5806
30.6249
30.6683
30.7109
30.7528
30.7938
30.8341
30.8735
30.9121
30.95
30.987
31.0233
31.0587
31.0934
31.1273
31.1603
31.1926
31.2241
31.2548
31.2846
31.3137
31.342
31.3696
31.3963
31.4222
31.4473
31.4717
31.4953
31.518
31.54
31.5612
31.5816
31.6012
31.62
31.6381
31.6553
31.6718
31.6875
31.7024
31.7165
31.7298
31.7424
31.7541
31.7651
31.7753
31.7847
31.7933
31.8011
31.8082
31.8145
31.8199
31.8246
31.8286
31.8317
31.834
31.8356
31.8364
26.0389
26.0264
26.0015
25.9644
25.9155
25.8551
25.7838
25.7021
25.6106
25.5099
25.4006
25.2834
25.1588
25.0274
24.8899
24.7469
24.5987
24.446
24.2891
24.1286
23.9649
23.7984
23.6293
23.4581
23.2851
23.1105
22.9347
22.7579
22.5804
22.4024
22.2243
22.0461
21.8681
21.6905
21.5136
21.3375
21.1624
20.9885
20.816
20.645
20.4757
20.3083
20.1429
19.9796
19.8187
19.6602
19.5042
19.351
19.2005
19.0529
18.9084
18.7669
18.6287
18.4937
18.3621
18.234
18.1094
17.9884
17.871
17.7574
17.6475
17.5414
17.4392
17.3408
17.2464
17.1559
17.0694
16.9869
16.9084
16.834
16.7635
16.6971
16.6348
16.5764
16.5221
16.4718
16.4255
16.3832
16.3449
16.3105
16.28
16.2533
16.2306
16.2117
16.1965
16.1851
16.1774
16.1734
16.1729
16.1761
16.1828
16.1929
16.2065
16.2234
16.2437
16.2672
16.2939
16.3238
16.3567
16.3927
16.4316
16.4734
16.5181
16.5656
16.6158
16.6686
16.7241
16.782
16.8425
16.9053
16.9705
17.0379
17.1076
17.1794
17.2533
17.3292
17.4071
17.4869
17.5685
17.6519
17.7371
17.8238
17.9122
18.0021
18.0935
18.1863
18.2805
18.376
18.4728
18.5707
18.6698
18.77
18.8713
18.9735
19.0766
19.1807
19.2856
19.3913
19.4977
19.6048
19.7126
19.821
19.93
20.0395
20.1495
20.2599
20.3707
20.4819
20.5934
20.7052
20.8172
20.9295
21.0419
21.1545
21.2672
21.38
21.4928
21.6057
21.7185
21.8314
21.9441
22.0567
22.1693
22.2816
22.3939
22.5059
22.6177
22.7292
22.8405
22.9515
23.0622
23.1725
23.2825
23.3922
23.5014
23.6103
23.7187
23.8267
23.9343
24.0413
24.1479
24.254
24.3596
24.4646
24.5691
24.6731
24.7764
24.8793
24.9815
25.0831
25.1841
25.2845
25.3843
25.4834
25.5818
25.6797
25.7768
25.8733
25.9691
26.0642
26.1586
26.2524
26.3454
26.4377
26.5292
26.6201
26.7102
26.7996
26.8883
26.9762
27.0633
27.1497
27.2354
27.3203
27.4044
27.4878
27.5704
27.6522
27.7332
27.8135
27.893
27.9717
28.0496
28.1267
28.203
28.2786
28.3534
28.4273
28.5005
28.5729
28.6444
28.7152
28.7852
28.8543
28.9227
28.9903
29.057
29.123
29.1882
29.2525
29.3161
29.3788
29.4407
29.5019
29.5622
29.6217
29.6804
29.7383
29.7954
29.8517
29.9072
29.9619
30.0157
30.0688
30.1211
30.1725
30.2232
30.273
30.3221
30.3703
30.4177
30.4644
30.5102
30.5552
30.5994
30.6428
30.6855
30.7273
30.7683
30.8085
30.848
30.8866
30.9244
30.9614
30.9977
31.0331
31.0677
31.1016
31.1346
31.1669
31.1983
31.229
31.2589
31.2879
31.3162
31.3437
31.3704
31.3964
31.4215
31.4458
31.4694
31.4921
31.5141
31.5353
31.5557
31.5753
31.5941
31.6121
31.6294
31.6458
31.6615
31.6764
31.6905
31.7038
31.7163
31.7281
31.739
31.7492
31.7586
31.7672
31.7751
31.7821
31.7884
31.7938
31.7985
31.8025
31.8056
31.8079
31.8095
31.8103
25.9319
25.9197
25.8953
25.859
25.811
25.7517
25.6816
25.6012
25.5109
25.4115
25.3034
25.1873
25.0637
24.9333
24.7967
24.6543
24.5068
24.3547
24.1984
24.0384
23.8751
23.7089
23.5403
23.3694
23.1967
23.0225
22.847
22.6705
22.4933
22.3157
22.1379
21.96
21.7824
21.6052
21.4286
21.2529
21.0782
20.9047
20.7325
20.5619
20.3931
20.2261
20.0611
19.8982
19.7377
19.5796
19.4241
19.2713
19.1212
18.9741
18.83
18.689
18.5512
18.4167
18.2856
18.1579
18.0337
17.9132
17.7963
17.6831
17.5737
17.4681
17.3663
17.2685
17.1745
17.0845
16.9985
16.9165
16.8385
16.7645
16.6946
16.6287
16.5668
16.509
16.4552
16.4054
16.3596
16.3178
16.28
16.2461
16.2161
16.19
16.1677
16.1493
16.1347
16.1238
16.1166
16.113
16.1131
16.1168
16.124
16.1346
16.1487
16.1661
16.1869
16.2109
16.2381
16.2684
16.3019
16.3383
16.3777
16.42
16.4652
16.5131
16.5638
16.6171
16.673
16.7314
16.7923
16.8556
16.9212
16.9891
17.0592
17.1314
17.2057
17.2821
17.3604
17.4405
17.5226
17.6064
17.6919
17.779
17.8678
17.9581
18.0498
18.143
18.2375
18.3334
18.4305
18.5287
18.6282
18.7287
18.8302
18.9328
19.0362
19.1406
19.2458
19.3517
19.4584
19.5658
19.6739
19.7826
19.8918
20.0015
20.1117
20.2224
20.3334
20.4448
20.5565
20.6685
20.7808
20.8933
21.0059
21.1187
21.2316
21.3445
21.4575
21.5705
21.6836
21.7965
21.9094
22.0222
22.1349
22.2474
22.3597
22.4719
22.5838
22.6954
22.8068
22.9179
23.0287
23.1392