/*--------------------------------*- C++ -*----------------------------------*\
| =========                 |                                                 |
| \\      /  F ield         | OpenFOAM: The Open Source CFD Toolbox           |
|  \\    /   O peration     | Version:  2212                                  |
|   \\  /    A nd           | Website:  www.openfoam.com                      |
|    \\/     M anipulation  |                                                 |
\*---------------------------------------------------------------------------*/
FoamFile
{
    version     2.0;
    format      ascii;
    arch        "LSB;label=32;scalar=64";
    class       surfaceScalarField;
    location    "390";
    object      phi;
}
// * * * * * * * * * * * * * * * * * * * * * * * * * * * * * * * * * * * * * //

dimensions      [1 0 -1 0 0 0 0];

oriented        oriented;

internalField   nonuniform List<scalar> 
408640
(
-2307
2304.52
-4595.32
2287.46
-6845.64
2249.45
-9041.23
2194.73
-11169.5
2127.4
-13222.3
2051.91
-15195.7
1972.44
-17089.2
1892.67
-18905.5
1815.42
-20649.1
1742.66
-22325.5
1675.54
-23940.9
1614.52
-25501.3
1559.57
-27012.4
1510.31
-28479.4
1466.13
-29906.5
1426.36
-31297.6
1390.3
-32655.7
1357.29
-33983.2
1326.73
-35282.1
1298.11
-36553.8
1270.99
-37799.6
1245.02
-39020.2
1219.92
-40216.4
1195.46
-41388.6
1171.48
-42537.2
1147.86
-43662.5
1124.51
-44764.6
1101.37
-45843.7
1078.39
-46900
1055.56
-47933.5
1032.85
-48944.5
1010.27
-49933
987.801
-50899.2
965.449
-51843.1
943.216
-52764.9
921.103
-53664.7
899.113
-54542.7
877.248
-55398.9
855.511
-56233.5
833.904
-57046.6
812.431
-57838.4
791.094
-58608.9
769.895
-59358.4
748.837
-60087
727.922
-60794.8
707.153
-61482
686.532
-62148.8
666.062
-62795.2
645.744
-63421.4
625.582
-64027.6
605.579
-64614
585.736
-65180.7
566.057
-65727.9
546.544
-66255.7
527.199
-66764.3
508.026
-67254
489.027
-67724.8
470.205
-68177
451.562
-68610.7
433.102
-69026.1
414.825
-69423.4
396.736
-69802.9
378.837
-70164.6
361.13
-70508.8
343.617
-70835.7
326.302
-71145.4
309.186
-71438.2
292.271
-71714.4
275.56
-71974
259.055
-72217.3
242.757
-72444.5
226.67
-72655.8
210.794
-72851.5
195.131
-73031.7
179.682
-73196.7
164.451
-73346.6
149.437
-73481.8
134.642
-73602.4
120.067
-73708.6
105.714
-73800.6
91.5826
-73878.8
77.6749
-73943.3
63.9911
-73994.3
50.5319
-74032.1
37.2978
-74056.8
24.2892
-74068.8
11.5064
-74068.2
-1.05044
-74055.3
-13.3812
-74030.2
-25.486
-73993.3
-37.3649
-73944.7
-49.0182
-73884.7
-60.4464
-73813.5
-71.6499
-73731.3
-82.6293
-73638.3
-93.3852
-73534.8
-103.919
-73421
-114.23
-73297
-124.321
-73163.2
-134.192
-73019.8
-143.845
-72866.9
-153.281
-72704.7
-162.501
-72533.6
-171.506
-72353.7
-180.299
-72165.1
-188.88
-71968.2
-197.252
-71763.2
-205.416
-71550.1
-213.374
-71329.4
-221.128
-71101
-228.68
-70865.3
-236.032
-70622.4
-243.185
-70372.6
-250.143
-70116
-256.907
-69852.8
-263.48
-69583.3
-269.863
-69307.5
-276.06
-69025.7
-282.072
-68738.1
-287.902
-68444.8
-293.552
-68146.1
-299.026
-67842
-304.324
-67532.8
-309.451
-67218.7
-314.407
-66899.7
-319.197
-66576.2
-323.823
-66248.1
-328.286
-65915.8
-332.591
-65579.3
-336.739
-65238.8
-340.733
-64894.4
-344.575
-64546.4
-348.27
-64194.8
-351.818
-63839.7
-355.223
-63481.5
-358.487
-63120
-361.614
-62755.6
-364.605
-62388.4
-367.464
-62018.4
-370.192
-61645.7
-372.793
-61270.7
-375.27
-60893.2
-377.624
-60513.5
-379.859
-60131.7
-381.977
-59747.9
-383.98
-59362.1
-385.872
-58974.6
-387.654
-58585.5
-389.33
-58194.7
-390.901
-57802.5
-392.37
-57408.8
-393.739
-57014
-395.012
-56617.9
-396.19
-56220.7
-397.276
-55822.6
-398.271
-55423.5
-399.179
-55023.6
-400.002
-54623
-400.741
-54221.7
-401.399
-53819.8
-401.979
-53417.4
-402.482
-53014.5
-402.911
-52611.3
-403.267
-52207.9
-403.553
-51804.2
-403.77
-51400.3
-403.922
-50996.3
-404.009
-50592.4
-404.034
-50188.4
-403.998
-49784.6
-403.904
-49380.8
-403.753
-48977.3
-403.548
-48574.1
-403.289
-48171.1
-402.979
-47768.5
-402.619
-47366.3
-402.212
-46964.6
-401.758
-46563.3
-401.259
-46162.6
-400.718
-45762.5
-400.135
-45363
-399.512
-44964.1
-398.851
-44565.9
-398.153
-44168.5
-397.419
-43771.8
-396.651
-43375.9
-395.851
-42980.9
-395.019
-42586.7
-394.157
-42193.4
-393.266
-41801
-392.349
-41409.5
-391.404
-41019.1
-390.435
-40629.6
-389.443
-40241.1
-388.427
-39853.6
-387.39
-39467.2
-386.333
-39081.9
-385.256
-38697.6
-384.162
-38314.5
-383.05
-37932.5
-381.922
-37551.6
-380.778
-37171.9
-379.621
-36793.3
-378.45
-36415.9
-377.267
-36039.7
-376.072
-35664.8
-374.867
-35291
-373.652
-34918.4
-372.428
-34547.1
-371.196
-34177
-369.957
-33808.1
-368.711
-33440.5
-367.459
-33074.2
-366.202
-32709.1
-364.941
-32345.2
-363.676
-31982.7
-362.408
-31621.4
-361.138
-31261.3
-359.866
-30902.5
-358.593
-30545
-357.319
-30188.8
-356.045
-29833.8
-354.772
-29480.1
-353.501
-29127.7
-352.23
-28776.5
-350.963
-28426.6
-349.698
-28077.9
-348.436
-27730.5
-347.178
-27384.4
-345.924
-27039.5
-344.675
-26695.8
-343.43
-26353.4
-342.192
-26012.1
-340.959
-25672.2
-339.733
-25333.4
-338.513
-24995.8
-337.3
-24659.5
-336.095
-24324.3
-334.897
-23990.3
-333.708
-23657.5
-332.527
-23325.8
-331.355
-22995.4
-330.192
-22666
-329.039
-22337.8
-327.895
-22010.7
-326.761
-21684.8
-325.638
-21360
-324.524
-21036.2
-323.422
-20713.6
-322.331
-20392
-321.251
-20071.5
-320.182
-19752
-319.126
-19433.6
-318.081
-19116.2
-317.048
-18799.8
-316.028
-18484.4
-315.02
-18170
-314.025
-17856.6
-313.043
-17544.2
-312.074
-17232.7
-311.118
-16922.1
-310.176
-16612.5
-309.247
-16303.8
-308.332
-15995.9
-307.431
-15689
-306.544
-15382.9
-305.671
-15077.7
-304.812
-14773.3
-303.968
-14469.8
-303.138
-14167.1
-302.323
-13865.1
-301.523
-13564
-300.738
-13263.6
-299.968
-12963.9
-299.213
-12665
-298.473
-12366.8
-297.748
-12069.4
-297.039
-11772.6
-296.345
-11476.5
-295.667
-11181
-295.004
-10886.2
-294.357
-10592
-293.726
-10298.4
-293.111
-10005.5
-292.512
-9713.07
-291.928
-9421.24
-291.361
-9129.96
-290.81
-8839.21
-290.275
-8548.98
-289.756
-8259.25
-289.254
-7970
-288.768
-7681.22
-288.298
-7392.89
-287.844
-7104.99
-287.407
-6817.51
-286.987
-6530.44
-286.583
-6243.75
-286.196
-5957.43
-285.825
-5671.46
-285.471
-5385.83
-285.134
-5100.51
-284.813
-4815.5
-284.509
-4530.78
-284.222
-4246.32
-283.952
-3962.11
-283.699
-3678.14
-283.462
-3394.39
-283.243
-3110.84
-283.041
-2827.47
-282.857
-2544.27
-282.689
-2261.22
-282.54
-1978.3
-282.409
-1695.49
-282.295
-1412.77
-282.2
-1130.14
-282.123
-847.556
-282.064
-565.018
-282.022
-282.504
-281.998
-281.988
-2285.25
4588.91
-4553.62
4554.98
-6786.94
4481.92
-8969.52
4376.45
-11089.4
4246.4
-13138.4
4099.99
-15112
3945.21
-17009.3
3789.05
-18831.9
3637.05
-20583.2
3493.11
-22268.2
3359.61
-23892.1
3237.64
-25460.7
3127.27
-26979.1
3027.92
-28452.4
2938.54
-29884.7
2857.9
-31279.9
2784.69
-32641
2717.65
-33970.7
2655.62
-35270.9
2597.59
-36543.3
2542.7
-37789.3
2490.23
-39009.7
2439.61
-40205.4
2390.37
-41376.8
2342.17
-42524.4
2294.76
-43648.6
2247.93
-44749.5
2201.56
-45827.3
2155.55
-46882.4
2109.85
-47914.6
2064.42
-48924.3
2019.24
-49911.5
1974.3
-50876.4
1929.61
-51819
1885.15
-52739.6
1840.94
-53638.1
1796.97
-54514.8
1753.26
-55369.8
1709.81
-56203.2
1666.61
-57015.2
1623.68
-57805.8
1581.03
-58575.2
1538.65
-59323.6
1496.55
-60051.1
1454.74
-60757.8
1413.22
-61443.9
1372
-62109.6
1331.08
-62755
1290.46
-63380.2
1250.15
-63985.4
1210.16
-64570.8
1170.5
-65136.6
1131.16
-65682.8
1092.15
-66209.7
1053.48
-66717.4
1015.15
-67206.2
977.169
-67676.2
939.542
-68127.5
902.273
-68560.3
865.369
-68975
828.834
-69371.5
792.673
-69750.1
756.891
-70111.1
721.494
-70454.5
686.486
-70780.7
651.872
-71089.7
617.656
-71381.8
583.843
-71657.3
550.438
-71916.2
517.444
-72158.9
484.866
-72385.5
452.707
-72596.2
420.971
-72791.2
389.661
-72970.9
358.781
-73135.3
328.334
-73284.7
298.322
-73419.3
268.748
-73539.3
239.614
-73645.1
210.924
-73736.6
182.678
-73814.3
154.878
-73878.4
127.526
-73928.9
100.623
-73966.3
74.1707
-73990.6
48.1689
-74002.2
22.6188
-74001.2
-2.47954
-73987.9
-27.1258
-73962.5
-51.3202
-73925.3
-75.0631
-73876.4
-98.3548
-73816
-121.196
-73744.5
-143.589
-73662
-165.533
-73568.8
-187.03
-73465.1
-208.082
-73351
-228.691
-73226.9
-248.859
-73092.8
-268.587
-72949.2
-287.879
-72796.1
-306.737
-72633.8
-325.163
-72462.5
-343.16
-72282.5
-360.732
-72093.8
-377.882
-71896.8
-394.612
-71691.7
-410.927
-71478.5
-426.83
-71257.7
-442.326
-71029.3
-457.417
-70793.5
-472.108
-70550.6
-486.403
-70300.8
-500.307
-70044.2
-513.823
-69781
-526.957
-69511.4
-539.713
-69235.7
-552.094
-68954
-564.108
-68666.4
-575.757
-68373.2
-587.047
-68074.5
-597.982
-67770.5
-608.569
-67461.4
-618.812
-67147.4
-628.715
-66828.5
-638.285
-66505.1
-647.526
-66177.2
-656.444
-65844.9
-665.043
-65508.6
-673.33
-65168.2
-681.309
-64824.1
-688.985
-64476.2
-696.365
-64124.8
-703.453
-63769.9
-710.255
-63411.8
-716.775
-63050.6
-723.02
-62686.4
-728.995
-62319.4
-734.705
-61949.6
-740.154
-61577.2
-745.349
-61202.4
-750.295
-60825.2
-754.997
-60445.8
-759.46
-60064.2
-763.689
-59680.7
-767.69
-59295.2
-771.467
-58908
-775.025
-58519.1
-778.37
-58128.6
-781.506
-57736.7
-784.439
-57343.4
-787.173
-56948.8
-789.713
-56553.1
-792.063
-56156.2
-794.229
-55758.4
-796.216
-55359.6
-798.027
-54960.1
-799.667
-54559.8
-801.142
-54158.8
-802.454
-53757.3
-803.609
-53355.2
-804.611
-52952.8
-805.465
-52549.9
-806.174
-52146.8
-806.742
-51743.5
-807.174
-51340
-807.473
-50936.4
-807.644
-50532.8
-807.691
-50129.2
-807.617
-49725.7
-807.426
-49322.4
-807.122
-48919.3
-806.708
-48516.4
-806.188
-48113.9
-805.565
-47711.7
-804.843
-47309.9
-804.026
-46908.5
-803.116
-46507.7
-802.118
-46107.4
-801.033
-45707.6
-799.865
-45308.5
-798.618
-44910.1
-797.294
-44512.3
-795.896
-44115.3
-794.427
-43719
-792.89
-43323.6
-791.288
-42928.9
-789.623
-42535.1
-787.898
-42142.2
-786.116
-41750.3
-784.28
-41359.2
-782.391
-40969.2
-780.452
-40580.1
-778.465
-40192
-776.434
-39805
-774.359
-39419
-772.244
-39034.1
-770.091
-38650.3
-767.901
-38267.5
-765.677
-37885.9
-763.42
-37505.5
-761.133
-37126.2
-758.818
-36748.1
-756.476
-36371.1
-754.11
-35995.3
-751.721
-35620.8
-749.31
-35247.4
-746.88
-34875.3
-744.432
-34504.4
-741.969
-34134.7
-739.49
-33766.3
-736.998
-33399.1
-734.495
-33033.2
-731.982
-32668.5
-729.46
-32305.1
-726.93
-31942.9
-724.395
-31582
-721.855
-31222.4
-719.311
-30864
-716.765
-30507
-714.219
-30151.1
-711.672
-29796.6
-709.127
-29443.3
-706.584
-29091.3
-704.044
-28740.5
-701.509
-28391
-698.98
-28042.8
-696.457
-27695.8
-693.941
-27350.1
-691.434
-27005.6
-688.936
-26662.3
-686.449
-26320.3
-683.972
-25979.5
-681.507
-25639.9
-679.055
-25301.5
-676.617
-24964.4
-674.192
-24628.4
-671.782
-24293.7
-669.388
-23960.1
-667.011
-23627.7
-664.65
-23296.4
-662.306
-22966.3
-659.981
-22637.4
-657.675
-22309.6
-655.388
-21982.9
-653.122
-21657.4
-650.875
-21333
-648.65
-21009.6
-646.446
-20687.3
-644.264
-20366.2
-642.105
-20046
-639.969
-19727
-637.856
-19408.9
-635.767
-19091.9
-633.703
-18775.9
-631.663
-18461
-629.648
-18147
-627.659
-17833.9
-625.696
-17521.9
-623.758
-17210.8
-621.848
-16900.6
-619.964
-16591.4
-618.107
-16283
-616.278
-15975.6
-614.476
-15669.1
-612.703
-15363.4
-610.958
-15058.5
-609.242
-14754.5
-607.554
-14451.4
-605.896
-14149
-604.267
-13847.5
-602.667
-13546.7
-601.097
-13246.7
-599.557
-12947.4
-598.048
-12648.9
-596.569
-12351.1
-595.12
-12054
-593.702
-11757.5
-592.315
-11461.8
-590.96
-11166.7
-589.635
-10872.3
-588.342
-10578.5
-587.08
-10285.3
-585.85
-9992.68
-584.652
-9700.66
-583.486
-9409.2
-582.352
-9118.29
-581.251
-8827.92
-580.181
-8538.05
-579.144
-8248.69
-578.14
-7959.81
-577.168
-7671.4
-576.228
-7383.43
-575.322
-7095.91
-574.449
-6808.8
-573.608
-6522.09
-572.801
-6235.76
-572.027
-5949.81
-571.286
-5664.21
-570.578
-5378.94
-569.903
-5093.99
-569.262
-4809.34
-568.655
-4524.98
-568.081
-4240.88
-567.541
-3957.04
-567.034
-3673.44
-566.562
-3390.05
-566.124
-3106.86
-565.72
-2823.85
-565.351
-2541.02
-565.017
-2258.33
-564.718
-1975.77
-564.455
-1693.32
-564.228
-1410.97
-564.038
-1128.69
-563.884
-846.476
-563.766
-564.3
-563.683
-282.147
-563.635
-563.621
-2261.75
6849.82
-4507.78
6800.18
-6721.82
6695.11
-8889.53
6543.3
-10999.6
6355.58
-13043.9
6143.44
-15017.8
5918.16
-16919.4
5689.7
-18749.3
5466.1
-20510.3
5253.13
-22206
5054.44
-23841
4871.84
-25420.4
4705.73
-26948.7
4555.47
-28430.8
4419.76
-29870.6
4296.94
-31271.9
4185.23
-32637.9
4082.85
-33971.2
3988.14
-35274
3899.64
-36548.1
3816.07
-37795
3736.34
-39015.7
3659.59
-40211.2
3585.09
-41382.1
3512.31
-42528.8
3440.82
-43652
3370.31
-44751.7
3300.56
-45828.3
3231.42
-46881.9
3162.79
-47912.8
3094.6
-48921.1
3026.81
-49906.9
2959.4
-50870.4
2892.36
-51811.6
2825.69
-52730.8
2759.39
-53628
2693.46
-54503.3
2627.92
-55357
2562.76
-56189.1
2498
-56999.7
2433.64
-57789
2369.68
-58557.2
2306.15
-59304.3
2243.03
-60030.6
2180.34
-60736.2
2118.09
-61421.1
2056.28
-62085.6
1994.93
-62729.8
1934.03
-63353.9
1873.6
-63958.1
1813.64
-64542.4
1754.17
-65107
1695.19
-65652.2
1636.7
-66178.1
1578.72
-66684.8
1521.25
-67172.6
1464.31
-67641.5
1407.89
-68091.9
1352.02
-68523.8
1296.68
-68937.5
1241.91
-69333.1
1187.69
-69710.8
1134.04
-70070.9
1080.97
-70413.5
1028.48
-70738.7
976.585
-71046.9
925.285
-71338.3
874.59
-71612.9
824.506
-71871
775.039
-72112.9
726.195
-72338.7
677.98
-72548.7
630.399
-72743
583.458
-72921.9
537.161
-73085.6
491.513
-73234.3
446.518
-73368.3
402.181
-73487.7
358.504
-73592.7
315.491
-73683.7
273.145
-73760.8
231.468
-73824.2
190.463
-73874.2
150.132
-73911
110.475
-73934.8
71.4955
-73945.8
33.1929
-73944.3
-4.432
-73930.5
-41.379
-73904.6
-77.6481
-73866.9
-113.24
-73817.5
-148.155
-73756.7
-182.396
-73684.8
-215.962
-73601.9
-248.856
-73508.2
-281.08
-73404.1
-312.637
-73289.7
-343.529
-73165.2
-373.758
-73030.8
-403.33
-72886.8
-432.246
-72733.4
-460.511
-72570.8
-488.129
-72399.3
-515.104
-72218.9
-541.442
-72030
-567.145
-71832.7
-592.221
-71627.3
-616.673
-71414
-640.508
-71192.9
-663.731
-70964.3
-686.348
-70728.4
-708.365
-70485.3
-729.789
-70235.3
-750.625
-69978.6
-770.881
-69715.3
-790.563
-69445.6
-809.678
-69169.8
-828.232
-68887.9
-846.234
-68600.3
-863.69
-68307
-880.607
-68008.3
-896.993
-67704.3
-912.856
-67395.1
-928.203
-67081.1
-943.042
-66762.2
-957.38
-66438.8
-971.225
-66110.9
-984.586
-65778.7
-997.47
-65442.4
-1009.88
-65102.1
-1021.84
-64757.9
-1033.34
-64410.1
-1044.39
-64058.8
-1055.01
-63704
-1065.2
-63346.1
-1074.97
-62985
-1084.32
-62620.9
-1093.27
-62253.9
-1101.82
-61884.3
-1109.98
-61512.1
-1117.76
-61137.4
-1125.17
-60760.3
-1132.21
-60381.1
-1138.89
-59999.7
-1145.22
-59616.3
-1151.21
-59231.1
-1156.87
-58844.1
-1162.19
-58455.4
-1167.2
-58065.1
-1171.9
-57673.4
-1176.28
-57280.3
-1180.38
-56886
-1184.18
-56490.5
-1187.69
-56093.9
-1190.93
-55696.3
-1193.9
-55297.8
-1196.61
-54898.6
-1199.06
-54498.5
-1201.27
-54097.8
-1203.23
-53696.6
-1204.95
-53294.8
-1206.45
-52892.7
-1207.72
-52490.1
-1208.78
-52087.3
-1209.62
-51684.3
-1210.27
-51281.1
-1210.71
-50877.9
-1210.96
-50474.6
-1211.02
-50071.3
-1210.91
-49668.2
-1210.61
-49265.2
-1210.15
-48862.4
-1209.53
-48459.9
-1208.74
-48057.7
-1207.8
-47655.8
-1206.72
-47254.4
-1205.49
-46853.4
-1204.12
-46452.9
-1202.61
-46053
-1200.98
-45653.6
-1199.23
-45254.9
-1197.35
-44856.8
-1195.36
-44459.4
-1193.26
-44062.8
-1191.06
-43666.9
-1188.75
-43271.8
-1186.34
-42877.5
-1183.84
-42484.1
-1181.25
-42091.6
-1178.58
-41700.1
-1175.82
-41309.4
-1172.99
-40919.7
-1170.07
-40531
-1167.09
-40143.4
-1164.04
-39756.7
-1160.93
-39371.1
-1157.76
-38986.6
-1154.53
-38603.2
-1151.24
-38220.9
-1147.9
-37839.7
-1144.52
-37459.7
-1141.08
-37080.8
-1137.61
-36703
-1134.1
-36326.5
-1130.55
-35951.1
-1126.96
-35577
-1123.35
-35204
-1119.7
-34832.3
-1116.03
-34461.8
-1112.33
-34092.5
-1108.61
-33724.5
-1104.88
-33357.8
-1101.12
-32992.2
-1097.35
-32628
-1093.57
-32265
-1089.77
-31903.2
-1085.97
-31542.7
-1082.16
-31183.5
-1078.35
-30825.6
-1074.53
-30468.9
-1070.71
-30113.5
-1066.89
-29759.3
-1063.07
-29406.5
-1059.26
-29054.9
-1055.45
-28704.5
-1051.65
-28355.4
-1047.85
-28007.6
-1044.07
-27661
-1040.3
-27315.7
-1036.54
-26971.6
-1032.79
-26628.7
-1029.06
-26287.1
-1025.35
-25946.7
-1021.65
-25607.5
-1017.97
-25269.6
-1014.32
-24932.8
-1010.68
-24597.3
-1007.07
-24262.9
-1003.48
-23929.7
-999.91
-23597.7
-996.37
-23266.9
-992.856
-22937.2
-989.369
-22608.7
-985.911
-22281.3
-982.482
-21955
-979.083
-21629.9
-975.714
-21305.8
-972.377
-20982.9
-969.073
-20661
-965.801
-20340.2
-962.564
-20020.5
-959.36
-19701.8
-956.192
-19384.2
-953.06
-19067.6
-949.965
-18752
-946.906
-18437.4
-943.885
-18123.8
-940.902
-17811.2
-937.958
-17499.5
-935.053
-17188.8
-932.188
-16879
-929.364
-16570.1
-926.58
-16262.2
-923.837
-15955.1
-921.136
-15649
-918.477
-15343.7
-915.86
-15039.2
-913.287
-14735.6
-910.757
-14432.8
-908.27
-14130.9
-905.827
-13829.7
-903.429
-13529.3
-901.075
-13229.6
-898.767
-12930.8
-896.503
-12632.6
-894.285
-12335.2
-892.113
-12038.5
-889.988
-11742.4
-887.908
-11447.1
-885.875
-11152.4
-883.889
-10858.3
-881.951
-10564.9
-880.059
-10272
-878.215
-9979.81
-876.419
-9688.16
-874.671
-9397.08
-872.97
-9106.54
-871.318
-8816.53
-869.715
-8527.04
-868.16
-8238.05
-866.654
-7949.54
-865.197
-7661.5
-863.789
-7373.91
-862.43
-7086.75
-861.12
-6800.01
-859.86
-6513.67
-858.65
-6227.71
-857.489
-5942.13
-856.378
-5656.89
-855.317
-5371.99
-854.305
-5087.41
-853.344
-4803.13
-852.434
-4519.13
-851.573
-4235.41
-850.763
-3951.93
-850.004
-3668.69
-849.296
-3385.67
-848.639
-3102.85
-848.033
-2820.21
-847.48
-2537.73
-846.979
-2255.41
-846.531
-1973.21
-846.137
-1691.13
-845.797
-1409.15
-845.511
-1127.24
-845.28
-845.383
-845.103
-563.571
-844.981
-281.782
-844.91
-844.888
-2231.25
9080.23
-4448.47
9016.56
-6637.62
8883.4
-8786.09
8690.89
-10883.4
8452.04
-12921.8
8180.91
-14896
7891.46
-16803.4
7596.17
-18643.5
7305.26
-20417.5
7026.25
-22128.1
6764.12
-23778.7
6521.54
-25373.2
6299.41
-26915.9
6097.28
-28410.8
5913.82
-29861.8
5747.15
-31272.5
5595.15
-32646.1
5455.67
-33985.4
5326.64
-35292.7
5206.19
-36570
5092.64
-37819
4984.57
-39040.9
4880.78
-40236.9
4780.31
-41407.7
4682.38
-42554
4586.39
-43676.3
4491.88
-44775
4398.52
-45850.4
4306.09
-46902.7
4214.4
-47932.2
4123.37
-48939
4032.92
-49923.3
3943
-50885.3
3853.61
-51825
3764.72
-52742.6
3676.33
-53638.3
3588.46
-54512.2
3501.1
-55364.4
3414.25
-56195
3327.94
-57004.2
3242.15
-57792.1
3156.92
-58558.9
3072.24
-59304.6
2988.12
-60029.5
2904.57
-60733.7
2821.61
-61417.3
2739.23
-62080.5
2657.46
-62723.4
2576.3
-63346.3
2495.76
-63949.1
2415.85
-64532.2
2336.59
-65095.6
2257.97
-65639.5
2180.02
-66164.2
2102.75
-66669.7
2026.16
-67156.3
1950.26
-67624.1
1875.08
-68073.3
1800.6
-68504.1
1726.86
-68916.6
1653.85
-69311.1
1581.59
-69687.7
1510.09
-70046.7
1439.36
-70388.2
1369.41
-70712.4
1300.24
-71019.6
1231.87
-71309.9
1164.31
-71583.5
1097.56
-71840.6
1031.63
-72081.5
966.534
-72306.4
902.277
-72515.4
838.865
-72708.7
776.306
-72886.7
714.607
-73049.5
653.773
-73197.3
593.809
-73330.3
534.722
-73448.9
476.516
-73553.1
419.195
-73643.2
362.764
-73719.4
307.225
-73782
252.581
-73831.2
198.836
-73867.2
145.991
-73890.2
94.0481
-73900.5
43.0081
-73898.3
-7.12825
-73883.7
-56.3606
-73857.1
-104.689
-73818.7
-152.115
-73768.6
-198.638
-73707.2
-244.262
-73634.6
-288.986
-73551.1
-332.815
-73456.8
-375.75
-73352
-417.796
-73237
-458.954
-73111.9
-499.231
-72977
-538.629
-72832.5
-577.154
-72678.6
-614.811
-72515.5
-651.605
-72343.4
-687.543
-72162.6
-722.629
-71973.2
-756.871
-71775.5
-790.276
-71569.7
-822.85
-71355.9
-854.6
-71134.5
-885.536
-70905.5
-915.663
-70669.2
-944.991
-70425.8
-973.527
-70175.4
-1001.28
-69918.3
-1028.26
-69654.7
-1054.48
-69384.8
-1079.93
-69108.7
-1104.65
-68826.6
-1128.62
-68538.7
-1151.87
-68245.1
-1174.4
-67946.2
-1196.22
-67642
-1217.35
-67332.6
-1237.78
-67018.4
-1257.54
-66699.4
-1276.64
-66375.8
-1295.07
-66047.8
-1312.86
-65715.5
-1330.02
-65379
-1346.54
-65038.6
-1362.46
-64694.4
-1377.77
-64346.6
-1392.49
-63995.2
-1406.62
-63640.4
-1420.18
-63282.4
-1433.18
-62921.3
-1445.64
-62557.2
-1457.55
-62190.3
-1468.93
-61820.6
-1479.79
-61448.4
-1490.14
-61073.8
-1500
-60696.8
-1509.37
-60317.6
-1518.26
-59936.3
-1526.68
-59553
-1534.65
-59167.8
-1542.17
-58780.9
-1549.26
-58392.4
-1555.92
-58002.2
-1562.16
-57610.7
-1567.99
-57217.7
-1573.43
-56823.5
-1578.49
-56428.2
-1583.16
-56031.8
-1587.46
-55634.4
-1591.41
-55236.1
-1595.01
-54837
-1598.26
-54437.2
-1601.19
-54036.7
-1603.79
-53635.7
-1606.08
-53234.1
-1608.06
-52832.2
-1609.75
-52429.9
-1611.14
-52027.3
-1612.26
-51624.6
-1613.1
-51221.7
-1613.68
-50818.7
-1614.01
-50415.7
-1614.08
-50012.7
-1613.92
-49609.8
-1613.52
-49207.1
-1612.89
-48804.7
-1612.05
-48402.4
-1610.99
-48000.5
-1609.73
-47599
-1608.28
-47197.9
-1606.63
-46797.2
-1604.79
-46397
-1602.78
-45997.4
-1600.6
-45598.4
-1598.26
-45200
-1595.75
-44802.3
-1593.09
-44405.2
-1590.28
-44008.9
-1587.34
-43613.4
-1584.25
-43218.7
-1581.04
-42824.8
-1577.7
-42431.8
-1574.24
-42039.6
-1570.67
-41648.4
-1566.99
-41258.1
-1563.21
-40868.8
-1559.32
-40480.5
-1555.34
-40093.2
-1551.27
-39707
-1547.12
-39321.8
-1542.88
-38937.6
-1538.57
-38554.6
-1534.19
-38172.7
-1529.73
-37791.9
-1525.22
-37412.2
-1520.64
-37033.7
-1516.01
-36656.4
-1511.32
-36280.3
-1506.58
-35905.3
-1501.8
-35531.6
-1496.98
-35159
-1492.12
-34787.7
-1487.22
-34417.6
-1482.29
-34048.8
-1477.33
-33681.1
-1472.35
-33314.8
-1467.34
-32949.7
-1462.31
-32585.8
-1457.27
-32223.2
-1452.21
-31861.9
-1447.14
-31501.8
-1442.05
-31143
-1436.97
-30785.5
-1431.88
-30429.2
-1426.78
-30074.2
-1421.69
-29720.5
-1416.6
-29368.1
-1411.51
-29016.9
-1406.44
-28666.9
-1401.37
-28318.3
-1396.31
-27970.8
-1391.26
-27624.7
-1386.24
-27279.8
-1381.22
-26936.1
-1376.23
-26593.6
-1371.25
-26252.4
-1366.3
-25912.5
-1361.38
-25573.7
-1356.47
-25236.2
-1351.6
-24899.8
-1346.75
-24564.7
-1341.93
-24230.8
-1337.15
-23898
-1332.39
-23566.4
-1327.67
-23236
-1322.99
-22906.7
-1318.34
-22578.6
-1313.73
-22251.6
-1309.16
-21925.8
-1304.63
-21601
-1300.14
-21277.4
-1295.69
-20954.8
-1291.29
-20633.4
-1286.93
-20313
-1282.61
-19993.7
-1278.34
-19675.4
-1274.12
-19358.2
-1269.94
-19042
-1265.82
-18726.8
-1261.74
-18412.6
-1257.71
-18099.4
-1253.74
-17787.2
-1249.81
-17476
-1245.94
-17165.6
-1242.12
-16856.3
-1238.36
-16547.8
-1234.65
-16240.3
-1230.99
-15933.6
-1227.39
-15627.9
-1223.85
-15323
-1220.36
-15018.9
-1216.93
-14715.7
-1213.56
-14413.3
-1210.24
-14111.8
-1206.99
-13811
-1203.79
-13511
-1200.65
-13211.7
-1197.58
-12913.3
-1194.56
-12615.5
-1191.61
-12318.5
-1188.71
-12022.1
-1185.88
-11726.5
-1183.11
-11431.5
-1180.4
-11137.2
-1177.75
-10843.6
-1175.17
-10550.5
-1172.64
-10258.1
-1170.19
-9966.26
-1167.79
-9675.01
-1165.46
-9384.31
-1163.2
-9094.17
-1161
-8804.55
-1158.86
-8515.45
-1156.79
-8226.85
-1154.78
-7938.73
-1152.84
-7651.08
-1150.96
-7363.88
-1149.15
-7077.11
-1147.4
-6790.76
-1145.72
-6504.8
-1144.11
-6219.24
-1142.56
-5934.04
-1141.08
-5649.19
-1139.67
-5364.68
-1138.32
-5080.48
-1137.04
-4796.59
-1135.83
-4512.98
-1134.68
-4229.64
-1133.6
-3946.55
-1132.59
-3663.69
-1131.64
-3381.05
-1130.77
-3098.62
-1129.96
-2816.36
-1129.22
-2534.27
-1128.56
-2252.33
-1127.96
-1970.53
-1127.43
-1688.83
-1126.98
-1407.23
-1126.6
-1125.7
-1126.29
-844.234
-1126.06
-562.807
-1125.89
-281.402
-1125.8
-1125.78
-2204.7
11284.1
-4396.8
11207.8
-6564.22
11050
-8695.81
10821.6
-10782
10537.3
-12815.2
10213.2
-14790
9865.32
-16703
9508.24
-18552.8
9154.07
-20339.4
8811.99
-22064.5
8488.25
-23730.3
8186.5
-25340.1
7908.29
-26897.2
7653.55
-28405.3
7421.09
-29868
7209
-31288.7
7015.02
-32670.5
6836.7
-34016.3
6671.69
-35328.7
6517.76
-36609.7
6372.88
-37861.2
6235.31
-39084.7
6103.53
-40281.4
5976.29
-41452.3
5852.58
-42598.2
5731.59
-43719.8
5612.71
-44817.5
5495.47
-45891.6
5379.53
-46942.6
5264.65
-47970.6
5150.68
-48975.9
5037.5
-49958.7
4925.04
-50919
4813.27
-51857.2
4702.15
-52773.2
4591.68
-53667.3
4481.86
-54539.6
4372.69
-55390.2
4264.17
-56219.3
4156.32
-57027
4049.14
-57813.4
3942.63
-58578.6
3836.83
-59322.9
3731.72
-60046.3
3627.33
-60749
3523.67
-61431.2
3420.74
-62093
3318.57
-62734.5
3217.16
-63355.9
3116.52
-63957.4
3016.68
-64539.1
2917.64
-65101.1
2819.41
-65643.8
2722.01
-66167.1
2625.45
-66671.3
2529.75
-67156.6
2434.92
-67623.1
2340.97
-68071
2247.91
-68500.5
2155.77
-68911.8
2064.54
-69305
1974.25
-69680.5
1884.91
-70038.2
1796.53
-70378.5
1709.12
-70701.5
1622.7
-71007.5
1537.27
-71296.6
1452.85
-71569
1369.44
-71825
1287.07
-72064.8
1205.73
-72288.5
1125.45
-72496.4
1046.22
-72688.7
968.052
-72865.5
890.961
-73027.2
814.953
-73174
740.034
-73306
666.21
-73423.5
593.487
-73526.6
521.871
-73615.7
451.367
-73691
381.979
-73752.6
313.711
-73800.8
246.566
-73835.8
180.546
-73857.9
115.654
-73867.2
51.8906
-73864.1
-10.7427
-73848.6
-72.246
-73821.2
-132.619
-73781.8
-191.864
-73730.9
-249.98
-73668.7
-306.971
-73595.2
-362.839
-73510.9
-417.587
-73415.8
-471.217
-73310.3
-523.736
-73194.5
-575.146
-73068.7
-625.452
-72933
-674.662
-72787.8
-722.779
-72633.1
-769.811
-72469.4
-815.765
-72296.6
-860.648
-72115.1
-904.467
-71925.1
-947.231
-71726.8
-988.948
-71520.4
-1029.63
-71306.1
-1069.28
-71084
-1107.91
-70854.5
-1145.53
-70617.6
-1182.15
-70373.7
-1217.78
-70122.9
-1252.44
-69865.3
-1286.12
-69601.2
-1318.85
-69330.8
-1350.64
-69054.3
-1381.49
-68771.8
-1411.43
-68483.5
-1440.45
-68189.6
-1468.58
-67890.2
-1495.82
-67585.7
-1522.19
-67276
-1547.7
-66961.5
-1572.36
-66642.1
-1596.19
-66318.3
-1619.2
-65990
-1641.41
-65657.4
-1662.82
-65320.7
-1683.45
-64980.1
-1703.31
-64635.7
-1722.41
-64287.6
-1740.78
-63936
-1758.41
-63581.1
-1775.33
-63222.9
-1791.56
-62861.7
-1807.09
-62497.5
-1821.95
-62130.4
-1836.14
-61760.7
-1849.69
-61388.4
-1862.61
-61013.7
-1874.9
-60636.7
-1886.58
-60257.4
-1897.67
-59876.1
-1908.17
-59492.8
-1918.11
-59107.6
-1927.48
-58720.7
-1936.31
-58332.2
-1944.61
-57942.1
-1952.39
-57550.5
-1959.66
-57157.7
-1966.44
-56763.5
-1972.73
-56368.3
-1978.55
-55971.9
-1983.91
-55574.6
-1988.82
-55176.4
-1993.3
-54777.5
-1997.35
-54377.8
-2000.98
-53977.4
-2004.22
-53576.5
-2007.06
-53175.2
-2009.52
-52773.4
-2011.6
-52371.3
-2013.33
-51968.9
-2014.71
-51566.3
-2015.75
-51163.6
-2016.46
-50760.8
-2016.85
-50358
-2016.93
-49955.3
-2016.7
-49552.6
-2016.19
-49150.2
-2015.4
-48747.9
-2014.33
-48346
-2013
-47944.3
-2011.41
-47543
-2009.57
-47142.2
-2007.5
-46741.8
-2005.2
-46341.9
-2002.67
-45942.6
-1999.94
-45543.8
-1996.99
-45145.7
-1993.85
-44748.3
-1990.51
-44351.6
-1987
-43955.6
-1983.3
-43560.4
-1979.44
-43166
-1975.42
-42772.4
-1971.23
-42379.7
-1966.9
-41987.9
-1962.43
-41597
-1957.82
-41207.1
-1953.09
-40818.1
-1948.22
-40430.2
-1943.24
-40043.2
-1938.15
-39657.3
-1932.95
-39272.5
-1927.65
-38888.7
-1922.26
-38506.1
-1916.77
-38124.5
-1911.2
-37744.1
-1905.55
-37364.8
-1899.82
-36986.7
-1894.02
-36609.8
-1888.16
-36234
-1882.24
-35859.4
-1876.26
-35486.1
-1870.22
-35113.9
-1864.14
-34743
-1858.02
-34373.3
-1851.85
-34004.8
-1845.65
-33637.6
-1839.42
-33271.6
-1833.16
-32906.9
-1826.87
-32543.5
-1820.56
-32181.3
-1814.24
-31820.3
-1807.9
-31460.7
-1801.54
-31102.3
-1795.18
-30745.2
-1788.82
-30389.3
-1782.45
-30034.7
-1776.08
-29681.4
-1769.72
-29329.3
-1763.36
-28978.6
-1757.02
-28629
-1750.68
-28280.8
-1744.36
-27933.8
-1738.05
-27588
-1731.76
-27243.5
-1725.5
-26900.2
-1719.25
-26558.2
-1713.04
-26217.4
-1706.85
-25877.9
-1700.69
-25539.5
-1694.56
-25202.4
-1688.47
-24866.5
-1682.41
-24531.8
-1676.39
-24198.2
-1670.41
-23865.9
-1664.46
-23534.7
-1658.57
-23204.7
-1652.71
-22875.8
-1646.9
-22548.1
-1641.14
-22221.6
-1635.43
-21896.1
-1629.77
-21571.8
-1624.15
-21248.6
-1618.6
-20926.5
-1613.09
-20605.4
-1607.64
-20285.4
-1602.25
-19966.5
-1596.91
-19648.7
-1591.63
-19331.9
-1586.42
-19016.1
-1581.26
-18701.3
-1576.16
-18387.5
-1571.13
-18074.7
-1566.16
-17762.9
-1561.26
-17452.1
-1556.42
-17142.2
-1551.65
-16833.2
-1546.95
-16525.2
-1542.31
-16218
-1537.74
-15911.8
-1533.24
-15606.4
-1528.81
-15302
-1524.46
-14998.3
-1520.17
-14695.5
-1515.95
-14393.5
-1511.81
-14092.4
-1507.74
-13792
-1503.75
-13492.4
-1499.83
-13193.6
-1495.99
-12895.5
-1492.22
-12598.1
-1488.52
-12301.5
-1484.91
-12005.6
-1481.37
-11710.3
-1477.9
-11415.8
-1474.52
-11121.9
-1471.21
-10828.6
-1467.98
-10536
-1464.83
-10243.9
-1461.76
-9952.49
-1458.77
-9661.63
-1455.86
-9371.34
-1453.03
-9081.59
-1450.27
-8792.37
-1447.6
-8503.67
-1445.02
-8215.46
-1442.51
-7927.74
-1440.08
-7640.48
-1437.74
-7353.67
-1435.47
-7067.3
-1433.29
-6781.34
-1431.19
-6495.79
-1429.18
-6210.61
-1427.24
-5925.81
-1425.39
-5641.35
-1423.63
-5357.23
-1421.94
-5073.43
-1420.34
-4789.93
-1418.83
-4506.71
-1417.39
-4223.77
-1416.05
-3941.07
-1414.78
-3658.6
-1413.6
-3376.36
-1412.51
-3094.31
-1411.5
-2812.45
-1410.58
-2530.76
-1409.74
-2249.21
-1409
-1967.79
-1408.34
-1686.48
-1407.77
-1405.27
-1407.3
-1124.14
-1406.91
-843.061
-1406.62
-562.024
-1406.42
-281.009
-1406.3
-1406.27
-2177.76
13461
-4344.53
13373.7
-6490.02
13194.6
-8604.56
12935.2
-10679.5
12611.3
-12707.5
12240.3
-14682.9
11839.8
-16601.9
11426.2
-18461.9
11013.2
-20262.2
10611.3
-22002.9
10228
-23685.5
9868.19
-25312.1
9534.02
-26885.5
9226.04
-28408.6
8943.4
-29884.8
8684.34
-31317.2
8446.59
-32708.9
8227.6
-34062.8
8024.8
-35381.5
7835.68
-36667.3
7657.95
-37922.3
7489.52
-39148.1
7328.6
-40346.2
7173.64
-41517.7
7023.38
-42663.7
6876.79
-43784.7
6733.05
-44881.6
6591.56
-45954.6
6451.85
-47004.3
6313.59
-48030.8
6176.54
-49034.6
6040.53
-50015.7
5905.47
-50974.4
5771.27
-51910.9
5637.91
-52825.3
5505.35
-53717.7
5373.58
-54588.3
5242.6
-55437.2
5112.42
-56264.6
4983.04
-57070.6
4854.46
-57855.4
4726.71
-58619
4599.78
-59361.7
4473.71
-60083.5
4348.49
-60784.6
4224.14
-61465.2
4100.67
-62125.4
3978.11
-62765.4
3856.46
-63385.2
3735.75
-63985.2
3615.98
-64565.3
3497.17
-65125.9
3379.33
-65667
3262.49
-66188.9
3146.67
-66691.6
3031.86
-67175.4
2918.1
-67640.4
2805.4
-68086.9
2693.77
-68515
2583.23
-68924.8
2473.8
-69316.6
2365.49
-69690.6
2258.31
-70047
2152.29
-70385.8
2047.43
-70707.5
1943.76
-71012.1
1841.28
-71299.8
1740.01
-71570.9
1639.96
-71825.5
1541.15
-72063.9
1443.59
-72286.3
1347.28
-72492.8
1252.24
-72683.8
1158.48
-72859.4
1066.01