/*--------------------------------*- C++ -*----------------------------------*\
| =========                 |                                                 |
| \\      /  F ield         | OpenFOAM: The Open Source CFD Toolbox           |
|  \\    /   O peration     | Version:  2212                                  |
|   \\  /    A nd           | Website:  www.openfoam.com                      |
|    \\/     M anipulation  |                                                 |
\*---------------------------------------------------------------------------*/
FoamFile
{
    version     2.0;
    format      ascii;
    arch        "LSB;label=32;scalar=64";
    class       volScalarField;
    location    "970";
    object      p_rgh_0;
}
// * * * * * * * * * * * * * * * * * * * * * * * * * * * * * * * * * * * * * //

dimensions      [1 -1 -2 0 0 0 0];

internalField   nonuniform List<scalar> 
204800
(
51.1735
51.1729
51.1713
51.1691
51.1657
51.1614
51.1559
51.1492
51.1412
51.132
51.1215
51.1099
51.0972
51.0834
51.0686
51.0528
51.036
51.0182
50.9995
50.9798
50.9592
50.9377
50.9153
50.8919
50.8677
50.8426
50.8166
50.7897
50.762
50.7334
50.704
50.6738
50.6427
50.6109
50.5783
50.5449
50.5107
50.4758
50.4402
50.4038
50.3667
50.3289
50.2905
50.2514
50.2116
50.1712
50.1302
50.0885
50.0463
50.0035
49.9601
49.9162
49.8718
49.8268
49.7814
49.7354
49.689
49.6422
49.5949
49.5473
49.4992
49.4508
49.402
49.3528
49.3033
49.2536
49.2035
49.1532
49.1026
49.0518
49.0007
48.9495
48.8981
48.8465
48.7947
48.7429
48.6909
48.6389
48.5867
48.5345
48.4823
48.43
48.3778
48.3255
48.2733
48.2212
48.1691
48.1171
48.0651
48.0133
47.9617
47.9102
47.8588
47.8076
47.7567
47.7059
47.6554
47.6051
47.5551
47.5053
47.4559
47.4067
47.3579
47.3094
47.2613
47.2135
47.1661
47.1191
47.0725
47.0263
46.9806
46.9353
46.8904
46.846
46.8021
46.7587
46.7157
46.6733
46.6314
46.5901
46.5493
46.509
46.4693
46.4302
46.3916
46.3536
46.3163
46.2795
46.2434
46.2078
46.1729
46.1387
46.105
46.072
46.0397
46.008
45.977
45.9466
45.917
45.8879
45.8596
45.832
45.805
45.7787
45.7532
45.7283
45.7041
45.6806
45.6578
45.6357
45.6143
45.5937
45.5737
45.5544
45.5358
45.5179
45.5007
45.4843
45.4685
45.4534
45.439
45.4253
45.4123
45.4
45.3883
45.3774
45.3671
45.3575
45.3485
45.3403
45.3326
45.3257
45.3194
45.3137
45.3087
45.3043
45.3006
45.2974
45.2949
45.293
45.2917
45.291
45.2909
45.2913
45.2924
45.294
45.2962
45.2989
45.3022
45.306
45.3103
45.3152
45.3206
45.3265
45.3329
45.3397
45.3471
45.3549
45.3631
45.3719
45.381
45.3906
45.4007
45.4111
45.4219
45.4332
45.4448
45.4568
45.4691
45.4818
45.4949
45.5083
45.522
45.536
45.5504
45.565
45.5799
45.5951
45.6106
45.6263
45.6422
45.6584
45.6748
45.6914
45.7083
45.7253
45.7425
45.7599
45.7774
45.7951
45.8129
45.8309
45.849
45.8672
45.8855
45.9039
45.9224
45.9409
45.9595
45.9782
45.9969
46.0157
46.0345
46.0532
46.072
46.0908
46.1096
46.1284
46.1471
46.1658
46.1845
46.2031
46.2216
46.2401
46.2585
46.2768
46.295
46.313
46.331
46.3489
46.3666
46.3842
46.4016
46.4189
46.436
46.453
46.4697
46.4863
46.5027
46.5189
46.5349
46.5507
46.5663
46.5817
46.5968
46.6117
46.6264
46.6408
46.6549
46.6688
46.6824
46.6958
46.7089
46.7217
46.7342
46.7464
46.7584
46.77
46.7813
46.7923
46.803
46.8134
46.8235
46.8332
46.8427
46.8517
46.8605
46.8689
46.877
46.8847
46.8921
46.8991
46.9057
46.9121
46.918
46.9236
46.9288
46.9337
46.9382
46.9423
46.9461
46.9495
46.9525
46.9551
46.9574
46.9593
46.9608
46.9619
46.9627
46.963
51.0852
51.0839
51.0812
51.0775
51.0726
51.0667
51.0597
51.0517
51.0427
51.0328
51.0218
51.0099
50.9969
50.983
50.9681
50.9522
50.9354
50.9176
50.8989
50.8792
50.8587
50.8372
50.8147
50.7914
50.7672
50.7421
50.7162
50.6894
50.6617
50.6332
50.6038
50.5736
50.5426
50.5109
50.4783
50.445
50.4109
50.376
50.3404
50.3041
50.2671
50.2294
50.191
50.152
50.1123
50.0719
50.031
49.9894
49.9473
49.9045
49.8612
49.8174
49.773
49.7282
49.6828
49.637
49.5907
49.5439
49.4967
49.4492
49.4012
49.3528
49.3041
49.2551
49.2057
49.156
49.106
49.0558
49.0053
48.9546
48.9036
48.8525
48.8011
48.7496
48.698
48.6462
48.5944
48.5424
48.4904
48.4383
48.3861
48.334
48.2818
48.2297
48.1776
48.1255
48.0735
48.0216
47.9697
47.918
47.8665
47.815
47.7638
47.7127
47.6618
47.6112
47.5607
47.5106
47.4606
47.411
47.3616
47.3126
47.2638
47.2154
47.1674
47.1197
47.0724
47.0255
46.979
46.9329
46.8872
46.842
46.7972
46.7529
46.709
46.6657
46.6228
46.5805
46.5387
46.4974
46.4567
46.4165
46.3769
46.3378
46.2993
46.2614
46.2241
46.1874
46.1514
46.1159
46.081
46.0468
46.0133
45.9803
45.9481
45.9164
45.8855
45.8552
45.8256
45.7966
45.7683
45.7407
45.7138
45.6876
45.6621
45.6372
45.6131
45.5897
45.5669
45.5449
45.5235
45.5029
45.4829
45.4637
45.4451
45.4273
45.4101
45.3937
45.3779
45.3629
45.3485
45.3348
45.3219
45.3096
45.2979
45.287
45.2767
45.2671
45.2582
45.25
45.2424
45.2354
45.2291
45.2235
45.2185
45.2141
45.2103
45.2072
45.2047
45.2028
45.2015
45.2008
45.2007
45.2012
45.2022
45.2038
45.206
45.2087
45.212
45.2158
45.2201
45.225
45.2304
45.2362
45.2426
45.2495
45.2568
45.2646
45.2728
45.2816
45.2907
45.3003
45.3103
45.3207
45.3315
45.3427
45.3543
45.3663
45.3786
45.3913
45.4044
45.4177
45.4314
45.4454
45.4597
45.4743
45.4892
45.5044
45.5198
45.5355
45.5514
45.5676
45.584
45.6006
45.6174
45.6343
45.6515
45.6689
45.6864
45.704
45.7218
45.7398
45.7578
45.776
45.7942
45.8126
45.8311
45.8496
45.8682
45.8868
45.9055
45.9242
45.943
45.9617
45.9805
45.9992
46.018
46.0367
46.0554
46.0741
46.0927
46.1113
46.1298
46.1482
46.1666
46.1848
46.203
46.221
46.239
46.2568
46.2745
46.292
46.3094
46.3267
46.3438
46.3607
46.3774
46.394
46.4104
46.4266
46.4425
46.4583
46.4739
46.4892
46.5043
46.5191
46.5338
46.5482
46.5623
46.5761
46.5897
46.6031
46.6161
46.6289
46.6414
46.6536
46.6655
46.6771
46.6885
46.6995
46.7101
46.7205
46.7306
46.7403
46.7497
46.7587
46.7675
46.7759
46.7839
46.7916
46.799
46.806
46.8126
46.8189
46.8249
46.8305
46.8357
46.8405
46.845
46.8492
46.8529
46.8563
46.8593
46.8619
46.8642
46.8661
46.8676
46.8687
46.8695
46.8698
51.0665
51.0652
51.0626
51.0588
51.0539
51.048
51.041
51.033
51.024
51.0141
51.0031
50.9911
50.9781
50.9641
50.9492
50.9333
50.9165
50.8987
50.8799
50.8603
50.8397
50.8182
50.7958
50.7724
50.7482
50.7231
50.6972
50.6703
50.6426
50.6141
50.5848
50.5546
50.5236
50.4918
50.4593
50.4259
50.3918
50.357
50.3214
50.2851
50.2481
50.2104
50.172
50.1329
50.0932
50.0529
50.0119
49.9704
49.9282
49.8855
49.8422
49.7984
49.754
49.7092
49.6638
49.618
49.5717
49.5249
49.4777
49.4302
49.3822
49.3338
49.2851
49.2361
49.1867
49.137
49.0871
49.0368
48.9863
48.9356
48.8847
48.8335
48.7822
48.7307
48.6791
48.6273
48.5755
48.5235
48.4715
48.4194
48.3672
48.3151
48.2629
48.2108
48.1587
48.1066
48.0546
48.0027
47.9509
47.8992
47.8476
47.7962
47.745
47.6939
47.643
47.5924
47.5419
47.4918
47.4418
47.3922
47.3429
47.2938
47.2451
47.1967
47.1486
47.101
47.0537
47.0067
46.9602
46.9141
46.8685
46.8233
46.7785
46.7342
46.6903
46.647
46.6042
46.5618
46.52
46.4788
46.438
46.3978
46.3582
46.3192
46.2807
46.2428
46.2055
46.1688
46.1327
46.0973
46.0624
46.0282
45.9947
45.9618
45.9295
45.8979
45.8669
45.8366
45.807
45.7781
45.7498
45.7222
45.6953
45.6691
45.6436
45.6187
45.5946
45.5711
45.5484
45.5264
45.505
45.4844
45.4644
45.4452
45.4266
45.4088
45.3917
45.3752
45.3595
45.3444
45.3301
45.3164
45.3034
45.2911
45.2795
45.2686
45.2583
45.2487
45.2398
45.2315
45.2239
45.217
45.2107
45.2051
45.2001
45.1957
45.1919
45.1888
45.1863
45.1844
45.1831
45.1824
45.1823
45.1828
45.1838
45.1854
45.1876
45.1903
45.1936
45.1974
45.2018
45.2066
45.212
45.2179
45.2242
45.2311
45.2384
45.2462
45.2545
45.2632
45.2723
45.2819
45.2919
45.3024
45.3132
45.3244
45.336
45.348
45.3603
45.373
45.386
45.3994
45.4131
45.4271
45.4414
45.456
45.4709
45.486
45.5015
45.5171
45.5331
45.5492
45.5656
45.5822
45.599
45.616
45.6331
45.6505
45.668
45.6856
45.7034
45.7214
45.7394
45.7576
45.7759
45.7942
45.8127
45.8312
45.8498
45.8684
45.8871
45.9058
45.9246
45.9433
45.9621
45.9808
45.9996
46.0183
46.037
46.0557
46.0743
46.0929
46.1114
46.1298
46.1481
46.1664
46.1845
46.2026
46.2205
46.2383
46.256
46.2736
46.291
46.3082
46.3253
46.3422
46.359
46.3755
46.3919
46.4081
46.4241
46.4398
46.4554
46.4707
46.4858
46.5007
46.5153
46.5297
46.5438
46.5577
46.5713
46.5846
46.5976
46.6104
46.6229
46.6351
46.647
46.6586
46.6699
46.6809
46.6916
46.702
46.712
46.7218
46.7312
46.7402
46.749
46.7574
46.7654
46.7731
46.7805
46.7875
46.7941
46.8004
46.8064
46.8119
46.8172
46.822
46.8265
46.8306
46.8344
46.8377
46.8408
46.8434
46.8456
46.8475
46.849
46.8502
46.8509
46.8513
50.9878
50.9863
50.9832
50.9788
50.9732
50.9665
50.9587
50.9501
50.9405
50.93
50.9186
50.9063
50.8931
50.879
50.8639
50.8479
50.831
50.8132
50.7944
50.7747
50.7541
50.7326
50.7102
50.6868
50.6626
50.6376
50.6116
50.5848
50.5571
50.5286
50.4993
50.4692
50.4382
50.4065
50.3739
50.3406
50.3066
50.2718
50.2362
50.2
50.163
50.1253
50.087
50.048
50.0083
49.968
49.9271
49.8856
49.8435
49.8009
49.7576
49.7139
49.6696
49.6247
49.5794
49.5337
49.4874
49.4407
49.3936
49.3461
49.2982
49.2499
49.2012
49.1523
49.1029
49.0533
49.0034
48.9533
48.9028
48.8522
48.8013
48.7502
48.699
48.6475
48.596
48.5443
48.4925
48.4406
48.3886
48.3366
48.2845
48.2325
48.1804
48.1283
48.0763
48.0243
47.9723
47.9205
47.8687
47.8171
47.7656
47.7143
47.6631
47.6121
47.5613
47.5107
47.4603
47.4102
47.3603
47.3108
47.2615
47.2125
47.1638
47.1155
47.0675
47.0199
46.9727
46.9258
46.8794
46.8333
46.7877
46.7426
46.6979
46.6536
46.6099
46.5666
46.5238
46.4815
46.4398
46.3985
46.3579
46.3177
46.2782
46.2392
46.2007
46.1629
46.1257
46.089
46.053
46.0176
45.9828
45.9487
45.9151
45.8823
45.85
45.8185
45.7875
45.7573
45.7277
45.6988
45.6706
45.643
45.6162
45.59
45.5645
45.5397
45.5156
45.4922
45.4695
45.4475
45.4262
45.4056
45.3857
45.3664
45.3479
45.3301
45.313
45.2966
45.2809
45.2658
45.2515
45.2379
45.2249
45.2126
45.201
45.1901
45.1799
45.1703
45.1614
45.1532
45.1456
45.1386
45.1324
45.1267
45.1217
45.1174
45.1136
45.1105
45.108
45.1061
45.1048
45.1041
45.104
45.1045
45.1056
45.1072
45.1094
45.1121
45.1154
45.1192
45.1235
45.1284
45.1337
45.1396
45.146
45.1528
45.1602
45.168
45.1762
45.1849
45.1941
45.2036
45.2136
45.224
45.2348
45.246
45.2576
45.2696
45.2819
45.2946
45.3076
45.321
45.3346
45.3486
45.3629
45.3775
45.3924
45.4075
45.4229
45.4386
45.4545
45.4706
45.487
45.5036
45.5203
45.5373
45.5545
45.5718
45.5893
45.6069
45.6247
45.6426
45.6606
45.6788
45.697
45.7154
45.7338
45.7523
45.7708
45.7895
45.8081
45.8268
45.8455
45.8643
45.883
45.9018
45.9205
45.9392
45.9579
45.9765
45.9951
46.0136
46.0321
46.0505
46.0688
46.0871
46.1052
46.1232
46.1412
46.1589
46.1766
46.1941
46.2115
46.2287
46.2458
46.2627
46.2794
46.296
46.3123
46.3285
46.3444
46.3602
46.3757
46.391
46.4061
46.4209
46.4355
46.4499
46.464
46.4778
46.4914
46.5047
46.5178
46.5305
46.543
46.5552
46.5671
46.5787
46.59
46.601
46.6116
46.622
46.632
46.6417
46.6511
46.6602
46.6689
46.6773
46.6853
46.693
46.7004
46.7074
46.714
46.7203
46.7262
46.7318
46.737
46.7419
46.7463
46.7505
46.7542
46.7576
46.7606
46.7632
46.7655
46.7673
46.7689
46.77
46.7707
46.7711
50.957
50.9555
50.9525
50.9482
50.9426
50.9359
50.9282
50.9196
50.91
50.8995
50.8881
50.8758
50.8626
50.8484
50.8333
50.8173
50.8003
50.7824
50.7636
50.7439
50.7233
50.7017
50.6793
50.6559
50.6317
50.6066
50.5807
50.5538
50.5262
50.4977
50.4683
50.4382
50.4072
50.3754
50.3429
50.3096
50.2755
50.2407
50.2052
50.1689
50.1319
50.0943
50.0559
50.0169
49.9773
49.937
49.8961
49.8546
49.8125
49.7698
49.7266
49.6828
49.6385
49.5937
49.5484
49.5026
49.4564
49.4097
49.3626
49.315
49.2671
49.2188
49.1702
49.1212
49.0719
49.0223
48.9724
48.9222
48.8718
48.8211
48.7703
48.7192
48.6679
48.6165
48.565
48.5133
48.4615
48.4096
48.3576
48.3056
48.2536
48.2015
48.1494
48.0973
48.0453
47.9933
47.9414
47.8895
47.8378
47.7862
47.7347
47.6833
47.6321
47.5811
47.5303
47.4798
47.4294
47.3793
47.3294
47.2799
47.2306
47.1816
47.133
47.0846
47.0367
46.989
46.9418
46.895
46.8485
46.8025
46.7569
46.7117
46.667
46.6228
46.579
46.5358
46.493
46.4507
46.409
46.3678
46.3271
46.287
46.2474
46.2084
46.17
46.1322
46.0949
46.0583
46.0223
45.9869
45.9521
45.9179
45.8844
45.8516
45.8193
45.7878
45.7569
45.7266
45.6971
45.6682
45.6399
45.6124
45.5855
45.5594
45.5339
45.5091
45.485
45.4616
45.4389
45.4169
45.3956
45.375
45.3551
45.3359
45.3174
45.2996
45.2825
45.266
45.2503
45.2353
45.221
45.2073
45.1944
45.1821
45.1705
45.1596
45.1494
45.1398
45.1309
45.1227
45.1151
45.1082
45.1019
45.0963
45.0913
45.0869
45.0832
45.0801
45.0776
45.0757
45.0744
45.0737
45.0736
45.0741
45.0752
45.0768
45.079
45.0817
45.085
45.0888
45.0932
45.098
45.1034
45.1093
45.1156
45.1225
45.1298
45.1376
45.1459
45.1546
45.1637
45.1733
45.1833
45.1937
45.2045
45.2157
45.2273
45.2393
45.2516
45.2643
45.2773
45.2907
45.3043
45.3183
45.3326
45.3472
45.3621
45.3772
45.3926
45.4083
45.4242
45.4403
45.4567
45.4733
45.4901
45.507
45.5242
45.5415
45.559
45.5766
45.5944
45.6123
45.6303
45.6485
45.6667
45.6851
45.7035
45.722
45.7405
45.7592
45.7778
45.7965
45.8152
45.834
45.8527
45.8714
45.8902
45.9089
45.9276
45.9462
45.9648
45.9833
46.0018
46.0202
46.0385
46.0567
46.0749
46.0929
46.1108
46.1286
46.1463
46.1638
46.1812
46.1984
46.2155
46.2323
46.2491
46.2656
46.282
46.2981
46.3141
46.3298
46.3453
46.3606
46.3757
46.3906
46.4052
46.4195
46.4336
46.4475
46.461
46.4744
46.4874
46.5002
46.5126
46.5248
46.5367
46.5483
46.5596
46.5706
46.5812
46.5916
46.6016
46.6113
46.6207
46.6298
46.6385
46.6469
46.6549
46.6626
46.6699
46.6769
46.6836
46.6899
46.6958
46.7014
46.7066
46.7114
46.7159
46.72
46.7238
46.7271
46.7301
46.7328
46.735
46.7369
46.7384
46.7395
46.7403
46.7407
50.8854
50.8838
50.8806
50.876
50.8701
50.8631
50.8551
50.8461
50.8362
50.8254
50.8137
50.8012
50.7878
50.7734
50.7582
50.7421
50.725
50.7071
50.6882
50.6684
50.6478
50.6262
50.6037
50.5804
50.5561
50.531
50.5051
50.4783
50.4506
50.4221
50.3928
50.3626
50.3317
50.2999
50.2674
50.2341
50.2001
50.1653
50.1297
50.0935
50.0566
50.0189
49.9806
49.9416
49.902
49.8617
49.8209
49.7794
49.7373
49.6947
49.6515
49.6077
49.5635
49.5187
49.4734
49.4277
49.3815
49.3348
49.2878
49.2403
49.1924
49.1441
49.0955
49.0466
48.9973
48.9478
48.8979
48.8478
48.7974
48.7468
48.6959
48.6449
48.5937
48.5423
48.4908
48.4392
48.3874
48.3356
48.2836
48.2317
48.1796
48.1276
48.0756
48.0235
47.9716
47.9196
47.8677
47.8159
47.7642
47.7126
47.6612
47.6099
47.5588
47.5078
47.4571
47.4065
47.3562
47.3061
47.2563
47.2068
47.1576
47.1086
47.06
47.0117
46.9638
46.9162
46.869
46.8222
46.7758
46.7299
46.6843
46.6392
46.5945
46.5503
46.5066
46.4634
46.4206
46.3784
46.3367
46.2955
46.2549
46.2148
46.1753
46.1363
46.0979
46.0602
46.023
45.9864
45.9504
45.915
45.8803
45.8461
45.8127
45.7798
45.7476
45.7161
45.6852
45.655
45.6255
45.5966
45.5684
45.5409
45.5141
45.488
45.4625
45.4377
45.4137
45.3903
45.3676
45.3456
45.3244
45.3038
45.2839
45.2647
45.2462
45.2285
45.2114
45.195
45.1793
45.1643
45.15
45.1364
45.1234
45.1112
45.0996
45.0887
45.0785
45.0689
45.0601
45.0518
45.0443
45.0374
45.0311
45.0255
45.0205
45.0162
45.0125
45.0094
45.0069
45.005
45.0037
45.003
45.0029
45.0034
45.0045
45.0061
45.0083
45.0111
45.0143
45.0182
45.0225
45.0274
45.0327
45.0386
45.045
45.0518
45.0592
45.067
45.0752
45.0839
45.0931
45.1027
45.1126
45.1231
45.1339
45.1451
45.1567
45.1686
45.1809
45.1936
45.2066
45.22
45.2336
45.2476
45.2619
45.2765
45.2914
45.3065
45.3219
45.3376
45.3535
45.3696
45.3859
45.4025
45.4193
45.4362
45.4534
45.4707
45.4881
45.5058
45.5235
45.5414
45.5595
45.5776
45.5958
45.6142
45.6326
45.6511
45.6696
45.6882
45.7068
45.7255
45.7442
45.7629
45.7817
45.8004
45.8191
45.8378
45.8565
45.8751
45.8937
45.9122
45.9307
45.9491
45.9674
45.9856
46.0037
46.0217
46.0396
46.0574
46.075
46.0925
46.1099
46.1271
46.1442
46.161
46.1777
46.1943
46.2106
46.2267
46.2427
46.2584
46.2739
46.2892
46.3043
46.3191
46.3337
46.348
46.3621
46.376
46.3895
46.4028
46.4159
46.4286
46.4411
46.4533
46.4651
46.4767
46.488
46.499
46.5096
46.52
46.53
46.5397
46.5491
46.5581
46.5668
46.5752
46.5832
46.5909
46.5983
46.6053
46.6119
46.6182
46.6241
46.6297
46.6349
46.6397
46.6442
46.6483
46.652
46.6554
46.6584
46.661
46.6633
46.6652
46.6667
46.6678
46.6686
46.6689
50.8464
50.8449
50.8417
50.8373
50.8314
50.8246
50.8166
50.8076
50.7978
50.787
50.7753
50.7628
50.7493
50.7349
50.7197
50.7035
50.6864
50.6684
50.6495
50.6297
50.609
50.5874
50.5649
50.5415
50.5172
50.4921
50.4661
50.4393
50.4116
50.3831
50.3537
50.3236
50.2926
50.2608
50.2283
50.195
50.1609
50.1261
50.0906
50.0544
50.0174
49.9798
49.9414
49.9024
49.8628
49.8225
49.7817
49.7402
49.6981
49.6555
49.6122
49.5685
49.5242
49.4795
49.4342
49.3884
49.3422
49.2956
49.2485
49.201
49.1531
49.1049
49.0563
49.0073
48.958
48.9085
48.8586
48.8085
48.7581
48.7075
48.6566
48.6056
48.5544
48.503
48.4515
48.3999
48.3481
48.2962
48.2443
48.1923
48.1403
48.0883
48.0363
47.9842
47.9322
47.8803
47.8284
47.7766
47.7249
47.6733
47.6219
47.5706
47.5194
47.4685
47.4177
47.3672
47.3169
47.2668
47.217
47.1675
47.1182
47.0693
47.0207
46.9724
46.9245
46.8769
46.8297
46.7829
46.7365
46.6905
46.645
46.5999
46.5552
46.511
46.4673
46.4241
46.3813
46.3391
46.2974
46.2562
46.2156
46.1755
46.136
46.0971
46.0587
46.0209
45.9837
45.9471
45.9111
45.8758
45.841
45.8069
45.7734
45.7406
45.7084
45.6769
45.646
45.6158
45.5863
45.5574
45.5293
45.5018
45.4749
45.4488
45.4234
45.3986
45.3745
45.3512
45.3285
45.3065
45.2853
45.2647
45.2448
45.2256
45.2072
45.1894
45.1723
45.1559
45.1402
45.1252
45.1109
45.0973
45.0844
45.0722
45.0606
45.0497
45.0395
45.03
45.0211
45.0129
45.0053
44.9984
44.9922
44.9866
44.9816
44.9773
44.9735
44.9705
44.968
44.9661
44.9648
44.9642
44.9641
44.9646
44.9656
44.9673
44.9695
44.9722
44.9755
44.9793
44.9837
44.9886
44.9939
44.9998
45.0062
45.0131
45.0204
45.0282
45.0365
45.0452
45.0543
45.0639
45.0739
45.0843
45.0951
45.1064
45.1179
45.1299
45.1422
45.1549
45.1679
45.1813
45.195
45.209
45.2232
45.2378
45.2527
45.2678
45.2833
45.2989
45.3148
45.3309
45.3473
45.3639
45.3806
45.3976
45.4147
45.4321
45.4495
45.4672
45.4849
45.5028
45.5209
45.539
45.5572
45.5756
45.594
45.6125
45.631
45.6496
45.6682
45.6869
45.7056
45.7244
45.7431
45.7618
45.7805
45.7992
45.8179
45.8365
45.8551
45.8736
45.8921
45.9105
45.9288
45.947
45.9651
45.9831
46.001
46.0188
46.0364
46.0539
46.0713
46.0885
46.1056
46.1224
46.1391
46.1557
46.172
46.1882
46.2041
46.2198
46.2353
46.2506
46.2657
46.2805
46.2951
46.3094
46.3235
46.3374
46.3509
46.3642
46.3773
46.39
46.4025
46.4147
46.4265
46.4381
46.4494
46.4604
46.471
46.4814
46.4914
46.5011
46.5105
46.5195
46.5282
46.5366
46.5446
46.5523
46.5596
46.5666
46.5733
46.5795
46.5855
46.591
46.5962
46.6011
46.6056
46.6097
46.6134
46.6168
46.6198
46.6224
46.6247
46.6265
46.628
46.6292
46.6299
46.6303
50.7798
50.7783
50.7751
50.7705
50.7646
50.7576
50.7494
50.7404
50.7303
50.7194
50.7076
50.6948
50.6812
50.6668
50.6514
50.6351
50.6179
50.5999
50.5809
50.561
50.5403
50.5186
50.4961
50.4727
50.4484
50.4233
50.3972
50.3704
50.3427
50.3142
50.2848
50.2546
50.2237
50.1919
50.1594
50.1261
50.092
50.0572
50.0217
49.9854
49.9485
49.9109
49.8725
49.8336
49.7939
49.7537
49.7128
49.6713
49.6293
49.5866
49.5435
49.4997
49.4555
49.4107
49.3654
49.3197
49.2735
49.2269
49.1798
49.1324
49.0845
49.0363
48.9877
48.9388
48.8895
48.8399
48.7901
48.74
48.6896
48.639
48.5882
48.5372
48.486
48.4347
48.3832
48.3315
48.2798
48.228
48.1761
48.1241
48.0721
48.0201
47.9681
47.9161
47.8641
47.8122
47.7603
47.7086
47.6569
47.6053
47.5539
47.5026
47.4515
47.4006
47.3499
47.2993
47.2491
47.199
47.1492
47.0997
47.0505
47.0016
46.953
46.9048
46.8569
46.8093
46.7622
46.7154
46.669
46.6231
46.5775
46.5324
46.4878
46.4436
46.3999
46.3567
46.314
46.2718
46.2301
46.189
46.1484
46.1083
46.0688
46.0299
45.9916
45.9538
45.9166
45.8801
45.8441
45.8088
45.7741
45.74
45.7065
45.6737
45.6415
45.61
45.5792
45.549
45.5195
45.4907
45.4625
45.435
45.4082
45.3821
45.3567
45.332
45.3079
45.2846
45.2619
45.24
45.2187
45.1982
45.1783
45.1592
45.1407
45.1229
45.1059
45.0895
45.0738
45.0589
45.0446
45.031
45.0181
45.0058
44.9943
44.9834
44.9732
44.9637
44.9549
44.9467
44.9391
44.9322
44.926
44.9204
44.9154
44.9111
44.9074
44.9043
44.9019
44.9
44.8988
44.8981
44.898
44.8985
44.8996
44.9013
44.9035
44.9062
44.9095
44.9134
44.9177
44.9226
44.928
44.9339
44.9403
44.9471
44.9545
44.9623
44.9706
44.9793
44.9884
44.998
45.008
45.0184
45.0293
45.0405
45.0521
45.064
45.0764
45.089
45.1021
45.1154
45.1291
45.1431
45.1574
45.172
45.1868
45.202
45.2174
45.233
45.2489
45.2651
45.2814
45.298
45.3148
45.3317
45.3489
45.3662
45.3836
45.4013
45.419
45.4369
45.455
45.4731
45.4913
45.5096
45.5281
45.5465
45.5651
45.5837
45.6023
45.621
45.6397
45.6584
45.6771
45.6959
45.7146
45.7333
45.7519
45.7705
45.7891
45.8076
45.8261
45.8445
45.8628
45.881
45.8991
45.9171
45.935
45.9527
45.9704
45.9879
46.0052
46.0224
46.0395
46.0564
46.0731
46.0896
46.1059
46.122
46.138
46.1537
46.1692
46.1845
46.1995
46.2144
46.2289
46.2433
46.2574
46.2712
46.2847
46.298
46.3111
46.3238
46.3363
46.3484
46.3603
46.3719
46.3832
46.3941
46.4048
46.4151
46.4251
46.4348
46.4442
46.4532
46.4619
46.4703
46.4783
46.486
46.4933
46.5003
46.507
46.5132
46.5192
46.5247
46.5299
46.5348
46.5392
46.5434
46.5471
46.5505
46.5535
46.5561
46.5583
46.5602
46.5617
46.5629
46.5636
46.564
50.7353
50.7339
50.7307
50.7263
50.7205
50.7136
50.7055
50.6965
50.6865
50.6756
50.6638
50.6511
50.6374
50.6229
50.6075
50.5912
50.574
50.5559
50.5369
50.517
50.4962
50.4745
50.4519
50.4285
50.4041
50.379
50.3529
50.326
50.2983
50.2697
50.2404
50.2102
50.1792
50.1474
50.1149
50.0815
50.0475
50.0126
49.9771
49.9408
49.9039
49.8662
49.8279
49.7889
49.7493
49.709
49.6681
49.6266
49.5845
49.5419
49.4987
49.4549
49.4107
49.3659
49.3206
49.2749
49.2287
49.182
49.135
49.0875
49.0396
48.9914
48.9428
48.8938
48.8446
48.795
48.7451
48.695
48.6446
48.594
48.5432
48.4922
48.441
48.3896
48.3381
48.2865
48.2347
48.1829
48.131
48.079
48.027
47.975
47.923
47.871
47.819
47.767
47.7152
47.6634
47.6117
47.5601
47.5087
47.4574
47.4063
47.3554
47.3046
47.2541
47.2038
47.1538
47.104
47.0545
47.0053
46.9563
46.9077
46.8595
46.8116
46.764
46.7169
46.6701
46.6237
46.5777
46.5322
46.4871
46.4425
46.3983
46.3546
46.3114
46.2687
46.2265
46.1848
46.1437
46.1031
46.063
46.0235
45.9846
45.9462
45.9085
45.8713
45.8347
45.7988
45.7634
45.7287
45.6946
45.6612
45.6284
45.5962
45.5647
45.5339
45.5037
45.4742
45.4454
45.4172
45.3897
45.3629
45.3368
45.3114
45.2867
45.2626
45.2393
45.2167
45.1947
45.1735
45.1529
45.1331
45.1139
45.0955
45.0777
45.0607
45.0443
45.0287
45.0137
44.9994
44.9858
44.9729
44.9607
44.9492
44.9383
44.9281
44.9186
44.9098
44.9016
44.8941
44.8872
44.881
44.8754
44.8704
44.8661
44.8624
44.8593
44.8569
44.855
44.8538
44.8531
44.8531
44.8536
44.8547
44.8563
44.8586
44.8613
44.8646
44.8685
44.8729
44.8777
44.8831
44.889
44.8954
44.9023
44.9097
44.9175
44.9258
44.9345
44.9437
44.9533
44.9633
44.9737
44.9845
44.9958
45.0074
45.0193
45.0317
45.0444
45.0574
45.0708
45.0844
45.0984
45.1127
45.1273
45.1422
45.1574
45.1728
45.1884
45.2044
45.2205
45.2369
45.2534
45.2702
45.2872
45.3043
45.3216
45.3391
45.3567
45.3745
45.3924
45.4104
45.4286
45.4468
45.4652
45.4836
45.5021
45.5206
45.5392
45.5579
45.5765
45.5952
45.614
45.6327
45.6514
45.6701
45.6888
45.7075
45.7261
45.7447
45.7632
45.7817
45.8
45.8184
45.8366
45.8547
45.8727
45.8906
45.9083
45.926
45.9435
45.9608
45.9781
45.9951
46.012
46.0287
46.0452
46.0615
46.0777
46.0936
46.1093
46.1248
46.1401
46.1552
46.17
46.1846
46.1989
46.213
46.2268
46.2404
46.2537
46.2667
46.2795
46.2919
46.3041
46.316
46.3275
46.3388
46.3498
46.3604
46.3708
46.3808
46.3905
46.3999
46.4089
46.4176
46.426
46.434
46.4417
46.449
46.456
46.4626
46.4689
46.4748
46.4804
46.4856
46.4904
46.4949
46.499
46.5027
46.5061
46.5091
46.5117
46.514
46.5159
46.5174
46.5185
46.5193
46.5196
50.6723
50.6708
50.6677
50.6633
50.6574
50.6505
50.6424
50.6333
50.6233
50.6123
50.6004
50.5876
50.5738
50.5592
50.5437
50.5274
50.5101
50.4919
50.4728
50.4529
50.432
50.4103
50.3877
50.3642
50.3398
50.3146
50.2885
50.2616
50.2339
50.2053
50.1759
50.1457
50.1147
50.0829
50.0503
50.017
49.9829
49.9481
49.9125
49.8762
49.8393
49.8016
49.7633
49.7243
49.6846
49.6444
49.6035
49.562
49.5199
49.4773
49.434
49.3903
49.346
49.3012
49.256
49.2102
49.164
49.1174
49.0703
49.0228
48.975
48.9267
48.8781
48.8292
48.7799
48.7304
48.6805
48.6304
48.58
48.5294
48.4786
48.4276
48.3764
48.325
48.2735
48.2219
48.1701
48.1183
48.0664
48.0144
47.9624
47.9104
47.8584
47.8064
47.7544
47.7025
47.6506
47.5989
47.5472
47.4956
47.4442
47.3929
47.3418
47.2909
47.2401
47.1896
47.1393
47.0893
47.0395
46.99
46.9408
46.8919
46.8433
46.7951
46.7472
46.6996
46.6525
46.6057
46.5593
46.5134
46.4679
46.4228
46.3782
46.334
46.2903
46.2471
46.2044
46.1622
46.1206
46.0794
46.0388
45.9988
45.9593
45.9204
45.882
45.8443
45.8071
45.7706
45.7346
45.6993
45.6646
45.6305
45.5971
45.5643
45.5322
45.5007
45.4699
45.4397
45.4102
45.3814
45.3532
45.3258
45.299
45.2729
45.2475
45.2228
45.1988
45.1754
45.1528
45.1309
45.1097
45.0891
45.0693
45.0502
45.0317
45.014
44.997
44.9806
44.965
44.95
44.9358
44.9222
44.9093
44.8971
44.8856
44.8747
44.8646
44.8551
44.8462
44.8381
44.8305
44.8237
44.8175
44.8119
44.807
44.8027
44.799
44.7959
44.7935
44.7917
44.7904
44.7898
44.7897
44.7903
44.7914
44.793
44.7953
44.798
44.8014
44.8052
44.8096
44.8145
44.8199
44.8258
44.8322
44.8391
44.8465
44.8543
44.8626
44.8714
44.8805
44.8901
44.9002
44.9106
44.9214
44.9327
44.9443
44.9563
44.9686
44.9813
44.9944
45.0077
45.0214
45.0354
45.0497
45.0643
45.0792
45.0944
45.1098
45.1255
45.1414
45.1575
45.1739
45.1905
45.2073
45.2242
45.2414
45.2587
45.2762
45.2938
45.3116
45.3295
45.3475
45.3657
45.3839
45.4023
45.4207
45.4392
45.4577
45.4763
45.495
45.5137
45.5324
45.5511
45.5698
45.5885
45.6073
45.6259
45.6446
45.6632
45.6818
45.7003
45.7188
45.7372
45.7555
45.7737
45.7918
45.8098
45.8277
45.8455
45.8631
45.8806
45.898
45.9152
45.9322
45.9491
45.9658
45.9823
45.9986
46.0148
46.0307
46.0464
46.0619
46.0772
46.0923
46.1071
46.1217
46.136
46.1501
46.1639
46.1775
46.1908
46.2038
46.2165
46.229
46.2412
46.253
46.2646
46.2759
46.2869
46.2975
46.3078
46.3179
46.3276
46.3369
46.346
46.3547
46.363
46.3711
46.3787
46.3861
46.3931
46.3997
46.406
46.4119
46.4175
46.4227
46.4275
46.432
46.4361
46.4398
46.4432
46.4462
46.4488
46.451
46.4529
46.4544
46.4556
46.4563
46.4567
50.6243
50.6228
50.6198
50.6154
50.6097
50.6028
50.5948
50.5858
50.5758
50.5649
50.553
50.5402
50.5264
50.5118
50.4963
50.4799
50.4625
50.4443
50.4252
50.4052
50.3843
50.3625
50.3399
50.3164
50.292
50.2667
50.2406
50.2137
50.1859
50.1573
50.1278
50.0976
50.0665
50.0347
50.0021
49.9688
49.9346
49.8998
49.8642
49.8279
49.7909
49.7532
49.7149
49.6759
49.6362
49.5959
49.555
49.5135
49.4714
49.4287
49.3855
49.3417
49.2974
49.2526
49.2073
49.1615
49.1153
49.0686
49.0215
48.974
48.9262
48.8779
48.8293
48.7803
48.731
48.6814
48.6316
48.5814
48.531
48.4804
48.4296
48.3785
48.3273
48.2759
48.2244
48.1728
48.121
48.0691
48.0172
47.9652
47.9132
47.8612
47.8091
47.7571
47.7051
47.6532
47.6013
47.5495
47.4978
47.4462
47.3948
47.3435
47.2924
47.2414
47.1907
47.1401
47.0898
47.0398
46.99
46.9405
46.8913
46.8423
46.7937
46.7455
46.6976
46.65
46.6028
46.5561
46.5097
46.4637
46.4182
46.3731
46.3285
46.2843
46.2406
46.1974
46.1547
46.1125
46.0708
46.0297
45.9891
45.949
45.9095
45.8706
45.8323
45.7945
45.7573
45.7208
45.6848
45.6495
45.6148
45.5807
45.5473
45.5145
45.4824
45.4509
45.42
45.3899
45.3604
45.3316
45.3034
45.276
45.2492
45.2231
45.1977
45.173
45.149
45.1257
45.103
45.0811
45.0599
45.0394
45.0195
45.0004
44.982
44.9643
44.9472
44.9309
44.9153
44.9003
44.8861
44.8725
44.8596
44.8474
44.8359
44.8251
44.8149
44.8054
44.7966
44.7885
44.7809
44.7741
44.7679
44.7623
44.7574
44.7531
44.7495
44.7464
44.744
44.7422
44.741
44.7403
44.7403
44.7408
44.742
44.7436
44.7459
44.7487
44.752
44.7559
44.7603
44.7652
44.7706
44.7766
44.783
44.7899
44.7973
44.8051
44.8134
44.8222
44.8313
44.841
44.851
44.8615
44.8723
44.8836
44.8952
44.9072
44.9195
44.9323
44.9453
44.9587
44.9724
44.9864
45.0007
45.0154
45.0303
45.0454
45.0609
45.0765
45.0925
45.1086
45.125
45.1416
45.1584
45.1754
45.1925
45.2099
45.2274
45.245
45.2628
45.2807
45.2988
45.3169
45.3352
45.3535
45.3719
45.3904
45.409
45.4276
45.4463
45.465
45.4837
45.5024
45.5212
45.5399
45.5586
45.5773
45.596
45.6146
45.6332
45.6517
45.6702
45.6886
45.7069
45.7251
45.7432
45.7612
45.7791
45.7969
45.8146
45.8321
45.8494
45.8667
45.8837
45.9006
45.9173
45.9338
45.9501
45.9663
45.9822
45.9979
46.0135
46.0287
46.0438
46.0586
46.0732
46.0876
46.1016
46.1155
46.129
46.1423
46.1554
46.1681
46.1806
46.1927
46.2046
46.2162
46.2275
46.2384
46.2491
46.2594
46.2694
46.2791
46.2885
46.2975
46.3063
46.3146
46.3226
46.3303
46.3377
46.3446
46.3513
46.3576
46.3635
46.369
46.3743
46.3791
46.3836
46.3877
46.3914
46.3948
46.3978
46.4004
46.4027
46.4045
46.406
46.4072
46.4079
46.4083
50.5637
50.5622
50.5592
50.5549
50.5492
50.5424
50.5344
50.5254
50.5153
50.5044
50.4924
50.4796
50.4658
50.4511
50.4355
50.419
50.4016
50.3834
50.3642
50.3441
50.3232
50.3014
50.2787
50.2551
50.2307
50.2054
50.1792
50.1523
50.1244
50.0958
50.0663
50.0361
50.005
49.9731
49.9405
49.9071
49.873
49.8381
49.8025
49.7662
49.7292
49.6915
49.6531
49.614
49.5744
49.534
49.4931
49.4516
49.4095
49.3668
49.3235
49.2797
49.2354
49.1906
49.1453
49.0995
49.0533
49.0066
48.9595
48.912
48.8641
48.8158
48.7671
48.7182
48.6689
48.6193
48.5694
48.5192
48.4688
48.4182
48.3673
48.3163
48.265
48.2137
48.1621
48.1105
48.0587
48.0068
47.9549
47.9029
47.8509
47.7988
47.7468
47.6947
47.6427
47.5908
47.5389
47.4871
47.4354
47.3838
47.3323
47.281
47.2299
47.1789
47.1282
47.0776
47.0273
46.9773
46.9275
46.8779
46.8287
46.7798
46.7312
46.6829
46.635
46.5874
46.5403
46.4935
46.4471
46.4011
46.3556
46.3105
46.2659
46.2217
46.178
46.1348
46.0921
46.0499
46.0082
45.9671
45.9265
45.8864
45.8469
45.808
45.7697
45.7319
45.6948
45.6582
45.6223
45.5869
45.5522
45.5182
45.4847
45.4519
45.4198
45.3883
45.3575
45.3274
45.2979
45.2691
45.2409
45.2135
45.1867
45.1606
45.1352
45.1105
45.0865
45.0632
45.0406
45.0187
44.9975
44.977
44.9571
44.938
44.9196
44.9019
44.8849
44.8686
44.8529
44.838
44.8238
44.8102
44.7974
44.7852
44.7737
44.7629
44.7527
44.7432
44.7344
44.7263