/*--------------------------------*- C++ -*----------------------------------*\
| =========                 |                                                 |
| \\      /  F ield         | OpenFOAM: The Open Source CFD Toolbox           |
|  \\    /   O peration     | Version:  2212                                  |
|   \\  /    A nd           | Website:  www.openfoam.com                      |
|    \\/     M anipulation  |                                                 |
\*---------------------------------------------------------------------------*/
FoamFile
{
    version     2.0;
    format      ascii;
    arch        "LSB;label=32;scalar=64";
    class       volScalarField;
    location    "970";
    object      p_rgh;
}
// * * * * * * * * * * * * * * * * * * * * * * * * * * * * * * * * * * * * * //

dimensions      [1 -1 -2 0 0 0 0];

internalField   nonuniform List<scalar> 
204800
(
51.1799
51.1792
51.1777
51.1754
51.1721
51.1678
51.1623
51.1556
51.1475
51.1383
51.1279
51.1163
51.1035
51.0898
51.075
51.0591
51.0423
51.0245
51.0058
50.9861
50.9655
50.944
50.9216
50.8982
50.874
50.8488
50.8228
50.7959
50.7682
50.7396
50.7102
50.68
50.6489
50.6171
50.5844
50.551
50.5168
50.4819
50.4463
50.4099
50.3728
50.335
50.2965
50.2574
50.2176
50.1772
50.1361
50.0945
50.0522
50.0094
49.966
49.9221
49.8776
49.8327
49.7872
49.7412
49.6948
49.648
49.6007
49.553
49.5049
49.4564
49.4076
49.3585
49.309
49.2592
49.2091
49.1587
49.1081
49.0573
49.0062
48.9549
48.9035
48.8519
48.8001
48.7482
48.6962
48.6441
48.592
48.5398
48.4875
48.4352
48.3829
48.3307
48.2784
48.2262
48.1741
48.122
48.0701
48.0183
47.9666
47.915
47.8636
47.8124
47.7614
47.7106
47.6601
47.6098
47.5597
47.5099
47.4605
47.4113
47.3624
47.3139
47.2657
47.2179
47.1705
47.1234
47.0768
47.0306
46.9848
46.9394
46.8945
46.8501
46.8062
46.7627
46.7197
46.6773
46.6353
46.594
46.5531
46.5128
46.4731
46.4339
46.3953
46.3573
46.3199
46.2831
46.2469
46.2113
46.1764
46.1421
46.1084
46.0754
46.043
46.0113
45.9802
45.9498
45.9201
45.891
45.8627
45.835
45.808
45.7817
45.7561
45.7311
45.7069
45.6834
45.6606
45.6384
45.617
45.5963
45.5762
45.5569
45.5383
45.5204
45.5032
45.4867
45.4708
45.4557
45.4413
45.4275
45.4145
45.4021
45.3905
45.3795
45.3691
45.3595
45.3505
45.3422
45.3346
45.3276
45.3212
45.3155
45.3105
45.306
45.3022
45.2991
45.2965
45.2946
45.2932
45.2925
45.2924
45.2928
45.2938
45.2954
45.2975
45.3002
45.3035
45.3073
45.3116
45.3164
45.3218
45.3276
45.334
45.3408
45.3481
45.3559
45.3641
45.3728
45.382
45.3915
45.4015
45.4119
45.4227
45.4339
45.4455
45.4575
45.4698
45.4825
45.4955
45.5089
45.5226
45.5366
45.5509
45.5655
45.5804
45.5956
45.611
45.6267
45.6426
45.6588
45.6752
45.6918
45.7086
45.7256
45.7428
45.7601
45.7776
45.7953
45.8131
45.8311
45.8491
45.8673
45.8856
45.904
45.9225
45.941
45.9596
45.9782
45.9969
46.0157
46.0344
46.0532
46.072
46.0908
46.1096
46.1283
46.1471
46.1657
46.1844
46.203
46.2215
46.2399
46.2583
46.2766
46.2948
46.3128
46.3308
46.3486
46.3663
46.3839
46.4013
46.4186
46.4357
46.4527
46.4694
46.486
46.5024
46.5186
46.5346
46.5504
46.566
46.5813
46.5964
46.6113
46.626
46.6404
46.6545
46.6684
46.682
46.6954
46.7085
46.7212
46.7338
46.746
46.7579
46.7695
46.7809
46.7919
46.8026
46.813
46.823
46.8328
46.8422
46.8513
46.86
46.8684
46.8765
46.8842
46.8916
46.8986
46.9052
46.9115
46.9175
46.9231
46.9283
46.9332
46.9377
46.9418
46.9455
46.9489
46.9519
46.9546
46.9568
46.9587
46.9602
46.9614
46.9621
46.9625
51.0916
51.0902
51.0876
51.0839
51.0789
51.073
51.066
51.0581
51.0491
51.0391
51.0282
51.0162
51.0032
50.9893
50.9744
50.9585
50.9417
50.9239
50.9052
50.8855
50.8649
50.8434
50.821
50.7977
50.7735
50.7484
50.7224
50.6956
50.6679
50.6393
50.61
50.5798
50.5488
50.517
50.4844
50.4511
50.417
50.3821
50.3465
50.3102
50.2732
50.2354
50.197
50.158
50.1183
50.0779
50.0369
49.9954
49.9532
49.9104
49.8671
49.8233
49.7789
49.734
49.6886
49.6428
49.5964
49.5497
49.5025
49.4549
49.4069
49.3585
49.3098
49.2607
49.2113
49.1616
49.1116
49.0613
49.0108
48.96
48.9091
48.8579
48.8065
48.755
48.7034
48.6516
48.5997
48.5477
48.4956
48.4435
48.3913
48.3391
48.2869
48.2348
48.1826
48.1305
48.0785
48.0265
47.9747
47.923
47.8714
47.8199
47.7686
47.7175
47.6666
47.6159
47.5654
47.5152
47.4653
47.4156
47.3662
47.3171
47.2683
47.2199
47.1718
47.1241
47.0767
47.0298
46.9832
46.9371
46.8914
46.8461
46.8013
46.757
46.7131
46.6697
46.6268
46.5845
46.5426
46.5013
46.4605
46.4203
46.3806
46.3415
46.303
46.2651
46.2277
46.191
46.1549
46.1194
46.0845
46.0502
46.0166
45.9837
45.9513
45.9197
45.8887
45.8583
45.8287
45.7997
45.7714
45.7437
45.7168
45.6905
45.665
45.6401
45.6159
45.5924
45.5696
45.5476
45.5262
45.5055
45.4855
45.4662
45.4476
45.4297
45.4126
45.3961
45.3803
45.3652
45.3508
45.3371
45.324
45.3117
45.3001
45.2891
45.2788
45.2692
45.2602
45.2519
45.2443
45.2373
45.231
45.2253
45.2202
45.2158
45.212
45.2089
45.2063
45.2044
45.2031
45.2023
45.2022
45.2026
45.2036
45.2052
45.2073
45.21
45.2133
45.2171
45.2214
45.2262
45.2315
45.2374
45.2437
45.2505
45.2578
45.2656
45.2738
45.2825
45.2916
45.3012
45.3112
45.3215
45.3323
45.3435
45.3551
45.367
45.3793
45.392
45.405
45.4184
45.432
45.446
45.4603
45.4749
45.4897
45.5049
45.5203
45.5359
45.5518
45.568
45.5843
45.6009
45.6177
45.6346
45.6518
45.6691
45.6866
45.7042
45.722
45.7399
45.758
45.7761
45.7944
45.8127
45.8312
45.8497
45.8682
45.8868
45.9055
45.9242
45.9429
45.9617
45.9804
45.9992
46.0179
46.0367
46.0553
46.074
46.0926
46.1112
46.1296
46.1481
46.1664
46.1846
46.2028
46.2208
46.2388
46.2566
46.2742
46.2918
46.3092
46.3264
46.3435
46.3604
46.3771
46.3937
46.4101
46.4262
46.4422
46.458
46.4735
46.4888
46.5039
46.5188
46.5334
46.5478
46.5619
46.5757
46.5893
46.6027
46.6157
46.6285
46.641
46.6532
46.6651
46.6767
46.688
46.699
46.7097
46.72
46.7301
46.7398
46.7492
46.7583
46.767
46.7754
46.7834
46.7911
46.7985
46.8055
46.8121
46.8184
46.8244
46.83
46.8352
46.84
46.8445
46.8486
46.8524
46.8558
46.8588
46.8614
46.8637
46.8655
46.867
46.8682
46.8689
46.8693
51.0728
51.0715
51.0689
51.0652
51.0602
51.0543
51.0473
51.0394
51.0304
51.0204
51.0094
50.9974
50.9844
50.9705
50.9555
50.9396
50.9228
50.905
50.8862
50.8666
50.846
50.8244
50.802
50.7787
50.7545
50.7294
50.7034
50.6765
50.6488
50.6203
50.5909
50.5608
50.5298
50.498
50.4654
50.432
50.3979
50.3631
50.3275
50.2911
50.2541
50.2164
50.178
50.1389
50.0992
50.0589
50.0179
49.9763
49.9342
49.8914
49.8481
49.8043
49.7599
49.715
49.6696
49.6238
49.5774
49.5307
49.4835
49.4359
49.3879
49.3395
49.2908
49.2417
49.1923
49.1426
49.0926
49.0424
48.9918
48.9411
48.8901
48.839
48.7876
48.7361
48.6844
48.6327
48.5808
48.5288
48.4767
48.4246
48.3724
48.3203
48.2681
48.2159
48.1638
48.1117
48.0596
48.0077
47.9558
47.9041
47.8525
47.8011
47.7498
47.6987
47.6478
47.5971
47.5466
47.4964
47.4465
47.3968
47.3474
47.2983
47.2496
47.2011
47.1531
47.1053
47.058
47.0111
46.9645
46.9184
46.8727
46.8274
46.7826
46.7383
46.6944
46.651
46.6081
46.5658
46.5239
46.4826
46.4418
46.4016
46.362
46.3229
46.2844
46.2464
46.2091
46.1724
46.1363
46.1008
46.0659
46.0316
45.998
45.9651
45.9328
45.9011
45.8701
45.8398
45.8101
45.7811
45.7528
45.7252
45.6983
45.672
45.6464
45.6216
45.5974
45.5739
45.5511
45.5291
45.5077
45.487
45.467
45.4477
45.4291
45.4113
45.3941
45.3776
45.3618
45.3467
45.3323
45.3186
45.3056
45.2933
45.2816
45.2706
45.2604
45.2507
45.2418
45.2335
45.2258
45.2189
45.2125
45.2069
45.2018
45.1974
45.1936
45.1905
45.1879
45.186
45.1847
45.1839
45.1838
45.1842
45.1852
45.1868
45.189
45.1917
45.1949
45.1987
45.203
45.2078
45.2132
45.219
45.2253
45.2322
45.2395
45.2472
45.2555
45.2641
45.2733
45.2828
45.2928
45.3032
45.314
45.3252
45.3367
45.3487
45.361
45.3737
45.3867
45.4
45.4137
45.4276
45.4419
45.4565
45.4714
45.4865
45.5019
45.5176
45.5335
45.5496
45.566
45.5825
45.5993
45.6163
45.6334
45.6507
45.6682
45.6859
45.7036
45.7216
45.7396
45.7577
45.776
45.7943
45.8128
45.8313
45.8498
45.8685
45.8871
45.9058
45.9245
45.9433
45.962
45.9808
45.9995
46.0182
46.0369
46.0556
46.0742
46.0927
46.1112
46.1296
46.148
46.1662
46.1844
46.2024
46.2203
46.2381
46.2558
46.2733
46.2907
46.308
46.325
46.3419
46.3587
46.3752
46.3916
46.4078
46.4237
46.4395
46.455
46.4703
46.4854
46.5003
46.5149
46.5293
46.5434
46.5573
46.5708
46.5842
46.5972
46.61
46.6225
46.6347
46.6466
46.6582
46.6695
46.6805
46.6912
46.7015
46.7116
46.7213
46.7307
46.7397
46.7485
46.7569
46.7649
46.7726
46.78
46.787
46.7936
46.7999
46.8059
46.8114
46.8166
46.8215
46.826
46.8301
46.8338
46.8372
46.8402
46.8429
46.8451
46.847
46.8485
46.8496
46.8504
46.8508
50.9942
50.9927
50.9895
50.9852
50.9795
50.9728
50.9651
50.9564
50.9468
50.9363
50.9249
50.9127
50.8994
50.8853
50.8702
50.8542
50.8373
50.8195
50.8007
50.781
50.7604
50.7388
50.7164
50.6931
50.6689
50.6438
50.6178
50.591
50.5633
50.5348
50.5055
50.4753
50.4444
50.4126
50.3801
50.3467
50.3127
50.2778
50.2423
50.206
50.169
50.1314
50.093
50.054
50.0143
49.974
49.9331
49.8916
49.8495
49.8068
49.7635
49.7197
49.6754
49.6306
49.5852
49.5394
49.4932
49.4465
49.3993
49.3518
49.3039
49.2556
49.2069
49.1579
49.1085
49.0589
49.009
48.9588
48.9083
48.8576
48.8067
48.7556
48.7044
48.6529
48.6013
48.5496
48.4978
48.4459
48.3939
48.3418
48.2897
48.2376
48.1855
48.1334
48.0813
48.0293
47.9773
47.9255
47.8737
47.822
47.7705
47.7191
47.6679
47.6169
47.566
47.5154
47.465
47.4149
47.365
47.3154
47.266
47.217
47.1683
47.12
47.0719
47.0243
46.977
46.9301
46.8836
46.8376
46.7919
46.7467
46.702
46.6577
46.6139
46.5706
46.5278
46.4854
46.4437
46.4024
46.3617
46.3215
46.2819
46.2429
46.2044
46.1665
46.1293
46.0926
46.0565
46.0211
45.9862
45.952
45.9185
45.8856
45.8533
45.8217
45.7907
45.7605
45.7308
45.7019
45.6736
45.646
45.6191
45.5929
45.5674
45.5426
45.5184
45.495
45.4722
45.4502
45.4288
45.4082
45.3882
45.369
45.3504
45.3326
45.3154
45.299
45.2832
45.2681
45.2538
45.2401
45.2271
45.2148
45.2031
45.1922
45.1819
45.1723
45.1634
45.1551
45.1475
45.1405
45.1342
45.1285
45.1235
45.1191
45.1153
45.1122
45.1096
45.1077
45.1064
45.1057
45.1055
45.106
45.107
45.1086
45.1107
45.1134
45.1167
45.1204
45.1247
45.1296
45.1349
45.1407
45.1471
45.1539
45.1612
45.169
45.1772
45.1859
45.195
45.2045
45.2145
45.2249
45.2356
45.2468
45.2584
45.2703
45.2826
45.2953
45.3083
45.3216
45.3352
45.3492
45.3635
45.378
45.3929
45.408
45.4234
45.439
45.4549
45.471
45.4874
45.5039
45.5207
45.5376
45.5547
45.5721
45.5895
45.6071
45.6249
45.6428
45.6608
45.6789
45.6972
45.7155
45.7339
45.7524
45.7709
45.7895
45.8081
45.8268
45.8455
45.8643
45.883
45.9017
45.9204
45.9391
45.9578
45.9764
45.995
46.0135
46.032
46.0504
46.0687
46.0869
46.105
46.123
46.1409
46.1587
46.1764
46.1939
46.2113
46.2285
46.2455
46.2624
46.2791
46.2957
46.312
46.3281
46.3441
46.3598
46.3754
46.3907
46.4057
46.4206
46.4352
46.4495
46.4636
46.4774
46.491
46.5043
46.5174
46.5301
46.5426
46.5548
46.5667
46.5783
46.5895
46.6005
46.6112
46.6215
46.6316
46.6413
46.6507
46.6597
46.6684
46.6768
46.6848
46.6925
46.6999
46.7069
46.7135
46.7198
46.7257
46.7313
46.7365
46.7413
46.7458
46.7499
46.7537
46.7571
46.7601
46.7627
46.7649
46.7668
46.7683
46.7695
46.7702
46.7706
50.9633
50.9618
50.9588
50.9545
50.9489
50.9422
50.9345
50.9259
50.9163
50.9059
50.8944
50.8821
50.8689
50.8547
50.8396
50.8235
50.8066
50.7887
50.7699
50.7502
50.7295
50.708
50.6855
50.6622
50.6379
50.6128
50.5869
50.56
50.5323
50.5038
50.4745
50.4443
50.4133
50.3816
50.349
50.3157
50.2816
50.2468
50.2112
50.175
50.138
50.1003
50.0619
50.0229
49.9833
49.943
49.902
49.8605
49.8184
49.7757
49.7324
49.6886
49.6443
49.5995
49.5542
49.5084
49.4621
49.4154
49.3683
49.3207
49.2728
49.2245
49.1758
49.1268
49.0775
49.0279
48.9779
48.9277
48.8773
48.8266
48.7757
48.7246
48.6733
48.6219
48.5703
48.5186
48.4668
48.4149
48.3629
48.3108
48.2587
48.2066
48.1545
48.1024
48.0503
47.9983
47.9464
47.8945
47.8427
47.7911
47.7395
47.6882
47.6369
47.5859
47.5351
47.4845
47.4341
47.3839
47.3341
47.2844
47.2351
47.1861
47.1374
47.0891
47.0411
46.9934
46.9461
46.8993
46.8528
46.8067
46.7611
46.7159
46.6712
46.6269
46.5831
46.5398
46.497
46.4546
46.4129
46.3716
46.3309
46.2907
46.2511
46.2121
46.1737
46.1358
46.0985
46.0618
46.0258
45.9903
45.9555
45.9213
45.8878
45.8549
45.8226
45.791
45.7601
45.7298
45.7002
45.6712
45.643
45.6154
45.5885
45.5623
45.5368
45.5119
45.4878
45.4644
45.4416
45.4196
45.3982
45.3776
45.3577
45.3384
45.3199
45.302
45.2849
45.2684
45.2527
45.2376
45.2232
45.2096
45.1966
45.1843
45.1726
45.1617
45.1514
45.1418
45.1329
45.1246
45.117
45.1101
45.1037
45.0981
45.0931
45.0887
45.0849
45.0818
45.0792
45.0773
45.076
45.0753
45.0751
45.0756
45.0766
45.0782
45.0803
45.083
45.0863
45.0901
45.0944
45.0992
45.1045
45.1104
45.1167
45.1236
45.1309
45.1386
45.1468
45.1555
45.1646
45.1742
45.1842
45.1945
45.2053
45.2165
45.2281
45.24
45.2523
45.265
45.2779
45.2913
45.3049
45.3189
45.3332
45.3477
45.3626
45.3777
45.3931
45.4087
45.4246
45.4407
45.4571
45.4736
45.4904
45.5073
45.5245
45.5418
45.5592
45.5768
45.5946
45.6125
45.6305
45.6486
45.6669
45.6852
45.7036
45.7221
45.7406
45.7592
45.7778
45.7965
45.8152
45.8339
45.8527
45.8714
45.8901
45.9088
45.9275
45.9461
45.9647
45.9832
46.0017
46.02
46.0384
46.0566
46.0747
46.0927
46.1106
46.1284
46.146
46.1635
46.1809
46.1981
46.2152
46.2321
46.2488
46.2653
46.2816
46.2978
46.3137
46.3295
46.345
46.3603
46.3754
46.3902
46.4048
46.4191
46.4332
46.4471
46.4606
46.4739
46.487
46.4997
46.5122
46.5244
46.5363
46.5479
46.5591
46.5701
46.5808
46.5911
46.6012
46.6109
46.6202
46.6293
46.638
46.6464
46.6544
46.6621
46.6694
46.6764
46.6831
46.6894
46.6953
46.7009
46.7061
46.7109
46.7154
46.7195
46.7233
46.7266
46.7296
46.7323
46.7345
46.7364
46.7379
46.739
46.7398
46.7402
50.8917
50.8901
50.8869
50.8823
50.8764
50.8694
50.8614
50.8524
50.8425
50.8317
50.82
50.8075
50.7941
50.7797
50.7645
50.7483
50.7313
50.7133
50.6945
50.6747
50.654
50.6324
50.61
50.5866
50.5624
50.5372
50.5113
50.4844
50.4568
50.4282
50.3989
50.3687
50.3378
50.306
50.2735
50.2402
50.2061
50.1713
50.1358
50.0995
50.0626
50.0249
49.9866
49.9476
49.908
49.8677
49.8268
49.7853
49.7432
49.7006
49.6573
49.6136
49.5693
49.5245
49.4792
49.4334
49.3872
49.3406
49.2935
49.246
49.1981
49.1498
49.1012
49.0522
49.0029
48.9533
48.9034
48.8533
48.8029
48.7522
48.7014
48.6503
48.5991
48.5477
48.4961
48.4445
48.3927
48.3408
48.2889
48.2369
48.1848
48.1328
48.0807
48.0286
47.9766
47.9246
47.8727
47.8209
47.7692
47.7175
47.6661
47.6147
47.5636
47.5126
47.4618
47.4112
47.3609
47.3108
47.2609
47.2114
47.1621
47.1131
47.0645
47.0162
46.9682
46.9206
46.8734
46.8265
46.7801
46.7341
46.6885
46.6433
46.5986
46.5544
46.5106
46.4674
46.4246
46.3823
46.3406
46.2994
46.2587
46.2186
46.179
46.14
46.1016
46.0638
46.0265
45.9899
45.9539
45.9185
45.8837
45.8495
45.816
45.7831
45.7509
45.7193
45.6884
45.6582
45.6286
45.5997
45.5715
45.5439
45.5171
45.4909
45.4654
45.4406
45.4165
45.3931
45.3703
45.3483
45.327
45.3064
45.2865
45.2673
45.2487
45.2309
45.2138
45.1974
45.1816
45.1666
45.1522
45.1386
45.1256
45.1133
45.1017
45.0908
45.0805
45.0709
45.062
45.0538
45.0462
45.0392
45.0329
45.0273
45.0223
45.0179
45.0141
45.011
45.0085
45.0066
45.0053
45.0045
45.0044
45.0049
45.0059
45.0075
45.0097
45.0124
45.0156
45.0194
45.0237
45.0285
45.0339
45.0397
45.0461
45.0529
45.0602
45.068
45.0762
45.0849
45.094
45.1035
45.1135
45.1239
45.1347
45.1458
45.1574
45.1693
45.1816
45.1943
45.2073
45.2206
45.2342
45.2482
45.2625
45.277
45.2919
45.307
45.3224
45.338
45.3539
45.37
45.3863
45.4028
45.4196
45.4365
45.4536
45.4709
45.4884
45.506
45.5237
45.5416
45.5596
45.5777
45.596
45.6143
45.6327
45.6511
45.6697
45.6882
45.7069
45.7255
45.7442
45.7629
45.7816
45.8004
45.8191
45.8377
45.8564
45.875
45.8936
45.9121
45.9305
45.9489
45.9672
45.9854
46.0035
46.0215
46.0394
46.0572
46.0748
46.0923
46.1096
46.1268
46.1439
46.1607
46.1774
46.194
46.2103
46.2264
46.2424
46.2581
46.2736
46.2889
46.3039
46.3187
46.3333
46.3477
46.3617
46.3756
46.3891
46.4024
46.4155
46.4282
46.4407
46.4528
46.4647
46.4763
46.4876
46.4985
46.5092
46.5195
46.5295
46.5392
46.5486
46.5576
46.5664
46.5747
46.5827
46.5904
46.5978
46.6048
46.6114
46.6177
46.6236
46.6292
46.6344
46.6392
46.6437
46.6478
46.6515
46.6549
46.6579
46.6605
46.6628
46.6647
46.6662
46.6673
46.668
46.6684
50.8527
50.8512
50.848
50.8436
50.8377
50.8309
50.8229
50.8139
50.8041
50.7933
50.7816
50.769
50.7556
50.7412
50.7259
50.7097
50.6927
50.6747
50.6557
50.6359
50.6152
50.5936
50.5711
50.5477
50.5234
50.4983
50.4723
50.4455
50.4178
50.3892
50.3599
50.3297
50.2987
50.267
50.2344
50.2011
50.167
50.1322
50.0967
50.0604
50.0234
49.9858
49.9474
49.9084
49.8688
49.8285
49.7876
49.7461
49.704
49.6613
49.6181
49.5743
49.5301
49.4853
49.44
49.3942
49.348
49.3013
49.2542
49.2067
49.1588
49.1105
49.0619
49.0129
48.9636
48.914
48.8641
48.814
48.7636
48.7129
48.6621
48.611
48.5598
48.5084
48.4568
48.4051
48.3534
48.3015
48.2495
48.1975
48.1455
48.0934
48.0414
47.9893
47.9373
47.8853
47.8334
47.7816
47.7298
47.6782
47.6267
47.5754
47.5242
47.4732
47.4225
47.3719
47.3215
47.2714
47.2216
47.172
47.1228
47.0738
47.0252
46.9768
46.9289
46.8813
46.834
46.7872
46.7408
46.6948
46.6492
46.604
46.5593
46.5151
46.4713
46.4281
46.3853
46.343
46.3013
46.2601
46.2194
46.1793
46.1397
46.1008
46.0623
46.0245
45.9873
45.9507
45.9146
45.8792
45.8445
45.8103
45.7768
45.7439
45.7117
45.6801
45.6492
45.619
45.5894
45.5605
45.5323
45.5047
45.4779
45.4517
45.4262
45.4014
45.3773
45.3539
45.3312
45.3092
45.2879
45.2673
45.2474
45.2282
45.2097
45.1918
45.1747
45.1583
45.1426
45.1275
45.1132
45.0996
45.0866
45.0743
45.0627
45.0518
45.0415
45.032
45.0231
45.0148
45.0072
45.0003
44.994
44.9884
44.9833
44.979
44.9752
44.9721
44.9696
44.9677
44.9664
44.9657
44.9656
44.966
44.9671
44.9687
44.9708
44.9735
44.9768
44.9806
44.9849
44.9898
44.9951
45.001
45.0073
45.0141
45.0214
45.0292
45.0375
45.0461
45.0553
45.0648
45.0748
45.0852
45.096
45.1071
45.1187
45.1306
45.1429
45.1556
45.1686
45.1819
45.1956
45.2095
45.2238
45.2384
45.2532
45.2683
45.2837
45.2993
45.3152
45.3313
45.3477
45.3642
45.381
45.3979
45.415
45.4323
45.4498
45.4674
45.4851
45.503
45.521
45.5391
45.5574
45.5757
45.5941
45.6125
45.6311
45.6497
45.6683
45.6869
45.7056
45.7243
45.7431
45.7618
45.7805
45.7992
45.8178
45.8364
45.855
45.8735
45.8919
45.9103
45.9286
45.9468
45.9649
45.9829
46.0008
46.0186
46.0362
46.0537
46.0711
46.0883
46.1053
46.1222
46.1389
46.1554
46.1717
46.1878
46.2038
46.2195
46.235
46.2503
46.2653
46.2802
46.2947
46.3091
46.3232
46.337
46.3505
46.3638
46.3769
46.3896
46.4021
46.4142
46.4261
46.4377
46.4489
46.4599
46.4706
46.4809
46.4909
46.5006
46.51
46.519
46.5277
46.5361
46.5441
46.5518
46.5591
46.5661
46.5728
46.5791
46.585
46.5905
46.5957
46.6006
46.6051
46.6092
46.6129
46.6163
46.6193
46.6219
46.6241
46.626
46.6275
46.6287
46.6294
46.6298
50.7861
50.7845
50.7813
50.7768
50.7709
50.7639
50.7557
50.7467
50.7366
50.7257
50.7138
50.7011
50.6875
50.673
50.6576
50.6414
50.6242
50.6061
50.5871
50.5673
50.5465
50.5248
50.5023
50.4789
50.4546
50.4294
50.4034
50.3766
50.3488
50.3203
50.2909
50.2608
50.2298
50.198
50.1655
50.1321
50.0981
50.0633
50.0277
49.9915
49.9545
49.9169
49.8785
49.8395
49.7999
49.7596
49.7187
49.6773
49.6352
49.5925
49.5493
49.5056
49.4613
49.4165
49.3712
49.3255
49.2793
49.2326
49.1855
49.138
49.0902
49.0419
48.9933
48.9443
48.8951
48.8455
48.7956
48.7455
48.6951
48.6445
48.5936
48.5426
48.4914
48.44
48.3885
48.3368
48.2851
48.2332
48.1813
48.1293
48.0773
48.0252
47.9732
47.9212
47.8692
47.8172
47.7653
47.7135
47.6618
47.6102
47.5588
47.5075
47.4563
47.4054
47.3546
47.304
47.2537
47.2036
47.1538
47.1043
47.0551
47.0061
46.9575
46.9092
46.8613
46.8137
46.7665
46.7197
46.6733
46.6273
46.5817
46.5366
46.4919
46.4477
46.404
46.3607
46.318
46.2757
46.234
46.1928
46.1522
46.1121
46.0726
46.0336
45.9952
45.9574
45.9202
45.8836
45.8476
45.8122
45.7775
45.7433
45.7099
45.677
45.6448
45.6133
45.5824
45.5522
45.5226
45.4937
45.4655
45.438
45.4112
45.385
45.3596
45.3348
45.3107
45.2873
45.2646
45.2426
45.2214
45.2008
45.1809
45.1617
45.1432
45.1254
45.1083
45.0919
45.0762
45.0612
45.0468
45.0332
45.0203
45.008
44.9964
44.9855
44.9753
44.9657
44.9568
44.9486
44.941
44.9341
44.9278
44.9222
44.9172
44.9128
44.9091
44.906
44.9035
44.9016
44.9003
44.8996
44.8995
44.9
44.901
44.9026
44.9048
44.9075
44.9108
44.9146
44.9189
44.9238
44.9291
44.935
44.9414
44.9482
44.9555
44.9633
44.9715
44.9802
44.9893
44.9989
45.0089
45.0193
45.0301
45.0413
45.0528
45.0648
45.0771
45.0897
45.1027
45.116
45.1297
45.1437
45.1579
45.1725
45.1873
45.2025
45.2178
45.2335
45.2494
45.2655
45.2818
45.2983
45.3151
45.332
45.3491
45.3664
45.3839
45.4015
45.4192
45.4371
45.4551
45.4732
45.4915
45.5098
45.5282
45.5466
45.5651
45.5837
45.6024
45.621
45.6397
45.6584
45.6771
45.6958
45.7145
45.7332
45.7518
45.7704
45.789
45.8075
45.8259
45.8443
45.8626
45.8808
45.8989
45.9169
45.9348
45.9525
45.9701
45.9876
46.005
46.0222
46.0392
46.0561
46.0728
46.0893
46.1056
46.1217
46.1376
46.1534
46.1689
46.1841
46.1992
46.214
46.2286
46.2429
46.257
46.2708
46.2844
46.2976
46.3107
46.3234
46.3358
46.348
46.3599
46.3714
46.3827
46.3937
46.4043
46.4147
46.4247
46.4344
46.4437
46.4528
46.4615
46.4698
46.4778
46.4855
46.4929
46.4998
46.5065
46.5128
46.5187
46.5242
46.5294
46.5343
46.5387
46.5428
46.5466
46.55
46.5529
46.5556
46.5578
46.5597
46.5612
46.5623
46.5631
46.5635
50.7416
50.7401
50.737
50.7326
50.7268
50.7199
50.7118
50.7028
50.6928
50.6819
50.6701
50.6573
50.6437
50.6292
50.6138
50.5974
50.5802
50.5621
50.5431
50.5232
50.5024
50.4807
50.4581
50.4347
50.4103
50.3851
50.3591
50.3322
50.3045
50.2759
50.2465
50.2163
50.1853
50.1535
50.1209
50.0876
50.0535
50.0187
49.9831
49.9468
49.9099
49.8722
49.8339
49.7948
49.7552
49.7149
49.674
49.6325
49.5904
49.5477
49.5045
49.4608
49.4165
49.3717
49.3264
49.2806
49.2344
49.1877
49.1406
49.0931
49.0452
48.997
48.9484
48.8994
48.8501
48.8005
48.7506
48.7005
48.6501
48.5995
48.5486
48.4976
48.4463
48.395
48.3434
48.2918
48.24
48.1881
48.1362
48.0842
48.0322
47.9801
47.9281
47.876
47.824
47.772
47.7201
47.6683
47.6166
47.565
47.5136
47.4622
47.4111
47.3601
47.3094
47.2588
47.2085
47.1584
47.1086
47.059
47.0098
46.9608
46.9122
46.8639
46.816
46.7684
46.7212
46.6744
46.6279
46.5819
46.5364
46.4913
46.4466
46.4024
46.3586
46.3154
46.2726
46.2304
46.1887
46.1475
46.1069
46.0668
46.0272
45.9883
45.9499
45.9121
45.8749
45.8383
45.8023
45.7669
45.7321
45.698
45.6645
45.6317
45.5995
45.568
45.5371
45.5069
45.4773
45.4484
45.4202
45.3927
45.3659
45.3397
45.3143
45.2895
45.2654
45.2421
45.2194
45.1974
45.1761
45.1555
45.1356
45.1165
45.098
45.0802
45.0631
45.0467
45.031
45.016
45.0017
44.9881
44.9751
44.9629
44.9513
44.9404
44.9302
44.9206
44.9117
44.9035
44.896
44.889
44.8828
44.8772
44.8722
44.8678
44.8641
44.861
44.8585
44.8566
44.8553
44.8547
44.8546
44.855
44.8561
44.8577
44.8599
44.8626
44.8659
44.8697
44.8741
44.8789
44.8843
44.8902
44.8965
44.9034
44.9107
44.9185
44.9268
44.9355
44.9446
44.9542
44.9641
44.9745
44.9853
44.9965
45.0081
45.0201
45.0324
45.045
45.058
45.0714
45.085
45.099
45.1133
45.1279
45.1427
45.1579
45.1732
45.1889
45.2048
45.2209
45.2372
45.2538
45.2705
45.2875
45.3046
45.3219
45.3394
45.357
45.3747
45.3926
45.4106
45.4287
45.447
45.4653
45.4837
45.5021
45.5207
45.5393
45.5579
45.5766
45.5953
45.614
45.6327
45.6514
45.6701
45.6888
45.7074
45.726
45.7446
45.7631
45.7815
45.7999
45.8182
45.8364
45.8545
45.8725
45.8904
45.9081
45.9258
45.9433
45.9606
45.9778
45.9948
46.0117
46.0284
46.0449
46.0612
46.0774
46.0933
46.109
46.1245
46.1398
46.1548
46.1696
46.1842
46.1985
46.2126
46.2264
46.24
46.2533
46.2663
46.279
46.2915
46.3037
46.3155
46.3271
46.3384
46.3493
46.36
46.3703
46.3803
46.39
46.3994
46.4084
46.4171
46.4255
46.4335
46.4412
46.4485
46.4555
46.4621
46.4684
46.4743
46.4799
46.4851
46.4899
46.4944
46.4985
46.5022
46.5056
46.5086
46.5112
46.5135
46.5154
46.5169
46.518
46.5187
46.5191
50.6786
50.6771
50.674
50.6695
50.6637
50.6568
50.6487
50.6396
50.6295
50.6185
50.6066
50.5938
50.5801
50.5655
50.55
50.5336
50.5163
50.4981
50.479
50.4591
50.4382
50.4165
50.3939
50.3704
50.346
50.3208
50.2947
50.2678
50.24
50.2114
50.182
50.1518
50.1208
50.089
50.0564
50.023
49.9889
49.9541
49.9185
49.8822
49.8453
49.8076
49.7692
49.7302
49.6906
49.6503
49.6094
49.5679
49.5258
49.4831
49.4399
49.3961
49.3518
49.307
49.2617
49.216
49.1697
49.1231
49.076
49.0285
48.9806
48.9323
48.8837
48.8347
48.7855
48.7359
48.686
48.6359
48.5855
48.5348
48.484
48.4329
48.3817
48.3303
48.2788
48.2271
48.1754
48.1235
48.0716
48.0196
47.9676
47.9155
47.8635
47.8114
47.7594
47.7075
47.6556
47.6038
47.5521
47.5005
47.449
47.3977
47.3466
47.2956
47.2449
47.1943
47.144
47.0939
47.0441
46.9946
46.9453
46.8964
46.8478
46.7995
46.7516
46.704
46.6568
46.61
46.5636
46.5176
46.472
46.4269
46.3822
46.338
46.2943
46.2511
46.2084
46.1661
46.1244
46.0833
46.0426
46.0025
45.963
45.9241
45.8857
45.8479
45.8107
45.7741
45.7381
45.7028
45.668
45.6339
45.6004
45.5676
45.5354
45.5039
45.473
45.4428
45.4133
45.3845
45.3563
45.3288
45.3019
45.2758
45.2504
45.2256
45.2016
45.1782
45.1555
45.1336
45.1123
45.0917
45.0719
45.0527
45.0342
45.0164
44.9994
44.983
44.9673
44.9523
44.938
44.9244
44.9115
44.8992
44.8877
44.8768
44.8666
44.8571
44.8482
44.84
44.8324
44.8255
44.8193
44.8137
44.8087
44.8044
44.8007
44.7976
44.7951
44.7932
44.792
44.7913
44.7912
44.7917
44.7928
44.7944
44.7966
44.7994
44.8027
44.8065
44.8108
44.8157
44.8211
44.827
44.8333
44.8402
44.8475
44.8553
44.8636
44.8723
44.8815
44.891
44.901
44.9114
44.9223
44.9335
44.945
44.957
44.9693
44.982
44.995
45.0084
45.022
45.036
45.0503
45.0649
45.0797
45.0949
45.1103
45.1259
45.1418
45.1579
45.1743
45.1908
45.2076
45.2245
45.2417
45.259
45.2764
45.2941
45.3118
45.3297
45.3477
45.3658
45.3841
45.4024
45.4208
45.4393
45.4578
45.4764
45.495
45.5137
45.5324
45.5511
45.5698
45.5885
45.6072
45.6259
45.6445
45.6631
45.6817
45.7002
45.7187
45.737
45.7553
45.7735
45.7916
45.8096
45.8275
45.8453
45.8629
45.8804
45.8977
45.9149
45.932
45.9488
45.9655
45.982
45.9983
46.0145
46.0304
46.0461
46.0616
46.0769
46.0919
46.1068
46.1213
46.1357
46.1497
46.1635
46.1771
46.1904
46.2034
46.2161
46.2286
46.2408
46.2526
46.2642
46.2755
46.2864
46.2971
46.3074
46.3174
46.3271
46.3365
46.3455
46.3542
46.3626
46.3706
46.3783
46.3856
46.3926
46.3992
46.4055
46.4114
46.417
46.4222
46.427
46.4315
46.4356
46.4393
46.4427
46.4457
46.4483
46.4505
46.4524
46.4539
46.4551
46.4558
46.4562
50.6305
50.6291
50.626
50.6217
50.616
50.6091
50.6011
50.5921
50.5821
50.5711
50.5592
50.5464
50.5327
50.5181
50.5025
50.4861
50.4688
50.4505
50.4314
50.4114
50.3905
50.3687
50.3461
50.3225
50.2981
50.2729
50.2468
50.2198
50.192
50.1634
50.1339
50.1037
50.0726
50.0408
50.0082
49.9748
49.9407
49.9058
49.8702
49.8339
49.7969
49.7592
49.7208
49.6818
49.6421
49.6018
49.5609
49.5193
49.4772
49.4345
49.3913
49.3475
49.3032
49.2584
49.2131
49.1673
49.121
49.0743
49.0272
48.9797
48.9318
48.8835
48.8349
48.7859
48.7366
48.687
48.6371
48.5869
48.5365
48.4858
48.435
48.3839
48.3327
48.2812
48.2297
48.178
48.1262
48.0744
48.0224
47.9704
47.9184
47.8663
47.8142
47.7622
47.7101
47.6582
47.6063
47.5544
47.5027
47.4511
47.3996
47.3483
47.2971
47.2462
47.1954
47.1448
47.0945
47.0444
46.9946
46.945
46.8958
46.8468
46.7982
46.7499
46.7019
46.6544
46.6071
46.5603
46.5139
46.4679
46.4223
46.3772
46.3325
46.2883
46.2446
46.2014
46.1586
46.1164
46.0747
46.0335
45.9929
45.9528
45.9132
45.8743
45.8359
45.7981
45.7609
45.7243
45.6883
45.653
45.6182
45.5841
45.5506
45.5178
45.4856
45.4541
45.4232
45.393
45.3635
45.3346
45.3065
45.279
45.2521
45.226
45.2006
45.1758
45.1518
45.1284
45.1058
45.0838
45.0625
45.042
45.0221
45.0029
44.9845
44.9667
44.9496
44.9333
44.9176
44.9026
44.8883
44.8747
44.8618
44.8496
44.838
44.8272
44.817
44.8074
44.7986
44.7904
44.7828
44.776
44.7697
44.7641
44.7592
44.7548
44.7512
44.7481
44.7456
44.7438
44.7425
44.7418
44.7418
44.7423
44.7434
44.745
44.7472
44.75
44.7533
44.7571
44.7615
44.7664
44.7718
44.7777
44.7841
44.7909
44.7983
44.8061
44.8144
44.8231
44.8323
44.8419
44.8519
44.8623
44.8731
44.8843
44.8959
44.9079
44.9203
44.9329
44.946
44.9593
44.973
44.987
45.0013
45.0159
45.0308
45.0459
45.0613
45.077
45.0929
45.109
45.1254
45.142
45.1587
45.1757
45.1928
45.2102
45.2276
45.2453
45.263
45.2809
45.2989
45.3171
45.3353
45.3536
45.3721
45.3905
45.4091
45.4277
45.4463
45.465
45.4837
45.5024
45.5211
45.5399
45.5586
45.5773
45.5959
45.6145
45.6331
45.6516
45.6701
45.6885
45.7067
45.725
45.7431
45.7611
45.779
45.7967
45.8144
45.8319
45.8492
45.8664
45.8834
45.9003
45.917
45.9335
45.9499
45.966
45.9819
45.9976
46.0131
46.0284
46.0435
46.0583
46.0729
46.0872
46.1013
46.1151
46.1287
46.1419
46.155
46.1677
46.1802
46.1923
46.2042
46.2158
46.227
46.238
46.2486
46.259
46.269
46.2787
46.2881
46.2971
46.3058
46.3142
46.3222
46.3299
46.3372
46.3442
46.3508
46.3571
46.363
46.3686
46.3738
46.3786
46.3831
46.3872
46.3909
46.3943
46.3973
46.3999
46.4022
46.404
46.4055
46.4067
46.4074
46.4078
50.5699
50.5685
50.5655
50.5611
50.5555
50.5486
50.5406
50.5316
50.5216
50.5106
50.4987
50.4858
50.472
50.4573
50.4417
50.4252
50.4079
50.3896
50.3704
50.3503
50.3294
50.3076
50.2848
50.2613
50.2368
50.2115
50.1854
50.1584
50.1305
50.1019
50.0724
50.0421
50.0111
49.9792
49.9466
49.9132
49.879
49.8441
49.8085
49.7722
49.7351
49.6974
49.659
49.62
49.5803
49.5399
49.499
49.4575
49.4153
49.3726
49.3293
49.2855
49.2412
49.1964
49.151
49.1052
49.059
49.0123
48.9652
48.9176
48.8697
48.8214
48.7727
48.7237
48.6744
48.6248
48.5749
48.5247
48.4743
48.4236
48.3727
48.3216
48.2704
48.219
48.1674
48.1157
48.0639
48.012
47.9601
47.908
47.856
47.8039
47.7518
47.6998
47.6477
47.5957
47.5438
47.492
47.4403
47.3886
47.3372
47.2858
47.2347
47.1837
47.1329
47.0823
47.032
46.9819
46.932
46.8825
46.8332
46.7843
46.7356
46.6873
46.6394
46.5918
46.5446
46.4977
46.4513
46.4053
46.3598
46.3146
46.2699
46.2257
46.182
46.1388
46.096
46.0538
46.0121
45.9709
45.9303
45.8902
45.8506
45.8117
45.7733
45.7355
45.6983
45.6617
45.6257
45.5904
45.5556
45.5215
45.4881
45.4552
45.4231
45.3915
45.3607
45.3305
45.301
45.2721
45.2439
45.2165
45.1896
45.1635
45.1381
45.1134
45.0893
45.066
45.0433
45.0214
45.0001
44.9796
44.9597
44.9406
44.9221
44.9043
44.8873
44.8709
44.8553
44.8403
44.826
44.8124
44.7995
44.7873
44.7758
44.7649
44.7548
44.7452