/*--------------------------------*- C++ -*----------------------------------*\
| =========                 |                                                 |
| \\      /  F ield         | OpenFOAM: The Open Source CFD Toolbox           |
|  \\    /   O peration     | Version:  2212                                  |
|   \\  /    A nd           | Website:  www.openfoam.com                      |
|    \\/     M anipulation  |                                                 |
\*---------------------------------------------------------------------------*/
FoamFile
{
    version     2.0;
    format      ascii;
    arch        "LSB;label=32;scalar=64";
    class       surfaceScalarField;
    location    "970";
    object      phi;
}
// * * * * * * * * * * * * * * * * * * * * * * * * * * * * * * * * * * * * * //

dimensions      [1 0 -1 0 0 0 0];

oriented        oriented;

internalField   nonuniform List<scalar> 
408640
(
-741.05
739.766
-1462.73
721.48
-2147.65
684.721
-2784.05
636.2
-3367.27
583.036
-3899.25
531.79
-4386.67
487.241
-4838.85
451.994
-5265.67
426.64
-5676.13
410.284
-6077.52
401.21
-6475.14
397.442
-6872.47
397.158
-7271.54
398.886
-7673.28
401.564
-8077.96
404.503
-8485.44
407.303
-8895.38
409.764
-9307.37
411.81
-9720.98
413.437
-10135.8
414.673
-10551.6
415.558
-10967.9
416.135
-11384.5
416.443
-11801.2
416.514
-12217.7
416.376
-12634
416.053
-13049.7
415.565
-13464.8
414.926
-13879.1
414.152
-14292.6
413.252
-14705
412.237
-15116.3
411.114
-15526.3
409.892
-15935.1
408.575
-16342.4
407.169
-16748.3
405.679
-17152.6
404.108
-17555.2
402.46
-17956.1
400.739
-18355.2
398.947
-18752.5
397.086
-19147.8
395.159
-19541.1
393.169
-19932.4
391.115
-20321.6
389.002
-20708.6
386.829
-21093.4
384.599
-21475.8
382.312
-21856
379.971
-22233.7
377.576
-22609
375.128
-22981.8
372.628
-23352.1
370.078
-23719.7
367.478
-24084.7
364.83
-24447
362.133
-24806.5
359.39
-25163.3
356.6
-25517.2
353.764
-25868.3
350.884
-26216.4
347.96
-26561.6
344.993
-26903.7
341.983
-27242.8
338.931
-27578.8
335.838
-27911.6
332.705
-28241.3
329.532
-28567.8
326.32
-28891
323.07
-29211
319.782
-29527.6
316.456
-29840.8
313.095
-30150.7
309.698
-30457.1
306.265
-30760
302.798
-31059.5
299.298
-31355.4
295.764
-31647.8
292.198
-31936.5
288.6
-32221.6
284.971
-32503.1
281.311
-32780.8
277.622
-33054.9
273.903
-33325.2
270.156
-33591.7
266.381
-33854.4
262.579
-34113.3
258.75
-34368.4
254.896
-34619.5
251.016
-34866.8
247.112
-35110.1
243.183
-35349.5
239.232
-35584.9
235.258
-35816.3
231.262
-36043.6
227.245
-36267
223.207
-36486.3
219.15
-36701.5
215.073
-36912.6
210.978
-37119.6
206.865
-37322.4
202.734
-37521.1
198.587
-37715.7
194.425
-37906.1
190.247
-38092.2
186.055
-38274.2
181.849
-38452
177.629
-38625.5
173.398
-38794.8
169.154
-38959.8
164.899
-39120.5
160.634
-39277
156.359
-39429.2
152.075
-39577.1
147.783
-39720.7
143.482
-39860
139.174
-39995
134.86
-40125.6
130.54
-40251.9
126.215
-40373.9
121.886
-40491.6
117.552
-40604.9
113.215
-40713.9
108.876
-40818.5
104.534
-40918.8
100.191
-41014.8
95.8478
-41106.4
91.5042
-41193.6
87.1611
-41276.6
82.8191
-41355.1
78.4789
-41429.4
74.141
-41499.3
69.8061
-41564.8
65.4748
-41626.1
61.1476
-41683
56.8252
-41735.6
52.5081
-41783.9
48.1969
-41827.9
43.8922
-41867.6
39.5946
-41903
35.3046
-41934.1
31.0227
-41960.9
26.7495
-41983.5
22.4857
-42001.8
18.2316
-42015.8
13.9878
-42025.7
9.75485
-42031.3
5.53329
-42032.7
1.32361
-42029.9
-2.87369
-42022.9
-7.05812
-42011.8
-11.2292
-41996.4
-15.3864
-41977
-19.5293
-41953.4
-23.6574
-41925.7
-27.7702
-41893.9
-31.8674
-41858
-35.9483
-41818.1
-40.0127
-41774.1
-44.0601
-41726.1
-48.0901
-41674
-52.1022
-41618
-56.096
-41558
-60.0712
-41494
-64.0273
-41426.1
-67.9639
-41354.3
-71.8808
-41278.6
-75.7775
-41199
-79.6537
-41115.5
-83.509
-41028.2
-87.343
-40937.1
-91.1555
-40842.2
-94.9461
-40743.6
-98.7145
-40641.2
-102.46
-40535
-106.183
-40425.2
-109.883
-40311.7
-113.56
-40194.5
-117.213
-40073.7
-120.842
-39949.3
-124.446
-39821.3
-128.027
-39689.8
-131.582
-39554.7
-135.113
-39416.1
-138.618
-39274.1
-142.098
-39128.6
-145.552
-38979.6
-148.981
-38827.3
-152.384
-38671.5
-155.76
-38512.5
-159.11
-38350.1
-162.433
-38184.4
-165.73
-38015.4
-169
-37843.2
-172.242
-37667.8
-175.458
-37489.1
-178.646
-37307.4
-181.807
-37122.5
-184.94
-36934.4
-188.045
-36743.3
-191.123
-36549.2
-194.172
-36352
-197.194
-36151.9
-200.188
-35948.7
-203.153
-35742.7
-206.09
-35533.7
-208.999
-35321.8
-211.879
-35107.1
-214.731
-34889.6
-217.554
-34669.2
-220.348
-34446.1
-223.114
-34220.3
-225.852
-33991.8
-228.561
-33760.5
-231.241
-33526.7
-233.892
-33290.2
-236.514
-33051.1
-239.108
-32809.4
-241.673
-32565.2
-244.209
-32318.5
-246.717
-32069.3
-249.196
-31817.7
-251.646
-31563.6
-254.067
-31307.2
-256.459
-31048.3
-258.823
-30787.2
-261.159
-30523.7
-263.465
-30258
-265.744
-29990
-267.993
-29719.8
-270.215
-29447.4
-272.407
-29172.8
-274.572
-28896.1
-276.708
-28617.3
-278.816
-28336.4
-280.896
-28053.5
-282.947
-27768.5
-284.971
-27481.5
-286.966
-27192.6
-288.934
-26901.7
-290.874
-26608.9
-292.786
-26314.3
-294.671
-26017.7
-296.528
-25719.4
-298.357
-25419.2
-300.159
-25117.3
-301.934
-24813.6
-303.681
-24508.2
-305.402
-24201.1
-307.095
-23892.3
-308.761
-23581.9
-310.401
-23269.9
-312.014
-22956.3
-313.6
-22641.1
-315.159
-22324.4
-316.692
-22006.2
-318.199
-21686.5
-319.68
-21365.4
-321.134
-21042.8
-322.563
-20718.8
-323.965
-20393.5
-325.342
-20066.8
-326.692
-19738.8
-328.018
-19409.4
-329.317
-19078.8
-330.591
-18747
-331.84
-18413.9
-333.064
-18079.6
-334.263
-17744.2
-335.436
-17407.6
-336.585
-17069.9
-337.709
-16731
-338.808
-16391.1
-339.882
-16050.2
-340.932
-15708.2
-341.958
-15365.3
-342.959
-15021.3
-343.936
-14676.4
-344.889
-14330.6
-345.818
-13983.8
-346.723
-13636.2
-347.604
-13287.7
-348.461
-12938.4
-349.295
-12588.3
-350.105
-12237.4
-350.892
-11885.7
-351.656
-11533.3
-352.396
-11180.2
-353.113
-10826.4
-353.806
-10471.9
-354.477
-10116.7
-355.125
-9760.96
-355.751
-9404.59
-356.353
-9047.64
-356.933
-8690.13
-357.491
-8332.09
-358.026
-7973.54
-358.538
-7614.49
-359.029
-7254.97
-359.497
-6895.01
-359.944
-6534.63
-360.368
-6173.84
-360.771
-5812.67
-361.152
-5451.14
-361.511
-5089.28
-361.848
-4727.1
-362.163
-4364.62
-362.457
-4001.87
-362.729
-3638.88
-362.979
-3275.65
-363.207
-2912.22
-363.413
-2548.6
-363.598
-2184.83
-363.76
-1820.91
-363.9
-1456.87
-364.017
-1092.74
-364.113
-728.539
-364.186
-364.284
-364.237
-364.266
-730.424
1469.98
-1442.94
1433.79
-2120.64
1362.22
-2752.18
1267.55
-3333.04
1163.7
-3864.8
1063.36
-4353.63
975.89
-4808.25
906.434
-5238.03
856.239
-5651.55
823.627
-6055.82
805.301
-6455.98
797.431
-6855.46
796.461
-7256.27
799.509
-7659.37
804.492
-8065.09
810.045
-8473.34
815.375
-8883.83
820.076
-9296.19
823.993
-9710.04
827.107
-10125
829.469
-10540.8
831.153
-10957.1
832.239
-11373.6
832.799
-11790.2
832.897
-12206.5
832.586
-12622.6
831.912
-13038.1
830.911
-13453
829.615
-13867
828.05
-14280.2
826.237
-14692.3
824.195
-15103.3
821.941
-15513.1
819.488
-15921.5
816.847
-16328.6
814.03
-16734.1
811.045
-17138.1
807.899
-17540.4
804.601
-17941
801.156
-18339.8
797.569
-18736.7
793.846
-19131.7
789.991
-19524.7
786.008
-19915.7
781.901
-20304.5
777.673
-20691.2
773.327
-21075.6
768.867
-21457.8
764.294
-21837.6
759.612
-22215
754.822
-22589.9
749.927
-22962.4
744.928
-23332.3
739.829
-23699.6
734.63
-24064.3
729.334
-24426.3
723.942
-24785.5
718.456
-25141.9
712.878
-25495.5
707.208
-25846.3
701.45
-26194.1
695.603
-26538.9
689.67
-26880.7
683.652
-27219.5
677.55
-27555.2
671.366
-27887.8
665.102
-28217.1
658.758
-28543.3
652.336
-28866.2
645.837
-29185.9
639.263
-29502.2
632.615
-29815.1
625.894
-30124.7
619.102
-30430.8
612.239
-30733.5
605.308
-31032.6
598.309
-31328.3
591.244
-31620.3
584.115
-31908.8
576.921
-32193.6
569.666
-32474.8
562.349
-32752.3
554.973
-33026.1
547.538
-33296.1
540.047
-33562.4
532.5
-33824.9
524.898
-34083.5
517.244
-34338.3
509.537
-34589.2
501.78
-34836.2
493.975
-35079.3
486.121
-35318.4
478.221
-35553.5
470.276
-35784.7
462.287
-36011.8
454.256
-36235
446.184
-36454
438.072
-36669
429.922
-36879.9
421.735
-37086.7
413.512
-37289.3
405.254
-37487.8
396.964
-37682.2
388.642
-37872.3
380.29
-38058.3
371.909
-38240.1
363.5
-38417.6
355.065
-38591
346.605
-38760
338.121
-38924.9
329.615
-39085.5
321.088
-39241.8
312.542
-39393.8
303.977
-39541.5
295.395
-39684.9
286.798
-39824.1
278.187
-39958.9
269.562
-40089.4
260.926
-40215.5
252.279
-40337.4
243.623
-40454.9
234.96
-40568.1
226.29
-40676.9
217.615
-40781.4
208.935
-40881.6
200.254
-40977.4
191.57
-41068.9
182.887
-41156.1
174.204
-41238.9
165.524
-41317.3
156.848
-41391.5
148.176
-41461.3
139.51
-41526.7
130.851
-41587.9
122.2
-41644.7
113.56
-41697.2
104.929
-41745.4
96.3108
-41789.3
87.7053
-41828.9
79.1139
-41864.2
70.5378
-41895.3
61.9779
-41922.1
53.4356
-41944.6
44.9117
-41962.8
36.4075
-41976.8
27.9239
-41986.6
19.462
-41992.2
11.0228
-41993.6
2.60739
-41990.7
-5.78325
-41983.7
-14.1481
-41972.5
-22.4863
-41957.2
-30.7968
-41937.7
-39.0786
-41914.1
-47.3308
-41886.4
-55.5525
-41854.6
-63.7428
-41818.7
-71.9008
-41778.8
-80.0257
-41734.8
-88.1165
-41686.8
-96.1724
-41634.7
-104.193
-41578.7
-112.176
-41518.7
-120.123
-41454.8
-128.031
-41386.9
-135.9
-41315.1
-143.73
-41239.4
-151.52
-41159.9
-159.268
-41076.4
-166.975
-40989.2
-174.639
-40898.2
-182.26
-40803.3
-189.837
-40704.7
-197.37
-40602.4
-204.858
-40496.3
-212.3
-40386.5
-219.696
-40273.1
-227.046
-40156
-234.348
-40035.3
-241.602
-39911
-248.807
-39783.1
-255.964
-39651.6
-263.071
-39516.7
-270.129
-39378.2
-277.136
-39236.2
-284.092
-39090.8
-290.997
-38942
-297.851
-38789.7
-304.652
-38634.1
-311.401
-38475.2
-318.097
-38312.9
-324.74
-38147.3
-331.33
-37978.5
-337.866
-37806.4
-344.348
-37631.2
-350.775
-37452.7
-357.148
-37271
-363.466
-37086.3
-369.729
-36898.4
-375.936
-36707.5
-382.088
-36513.5
-388.184
-36316.5
-394.223
-36116.5
-400.207
-35913.5
-406.134
-35707.6
-412.005
-35498.8
-417.819
-35287.2
-423.576
-35072.6
-429.276
-34855.3
-434.919
-34635.1
-440.506
-34412.2
-446.034
-34186.6
-451.506
-33958.3
-456.92
-33727.2
-462.277
-33493.6
-467.576
-33257.3
-472.818
-33018.4
-478.003
-32777
-483.13
-32533
-488.199
-32286.5
-493.211
-32037.5
-498.166
-31786.1
-503.063
-31532.3
-507.902
-31276.1
-512.685
-31017.5
-517.41
-30756.6
-522.078
-30493.4
-526.688
-30227.9
-531.242
-29960.1
-535.739
-29690.2
-540.178
-29418
-544.561
-29143.7
-548.887
-28867.3
-553.157
-28588.7
-557.37
-28308.1
-561.527
-28025.4
-565.628
-27740.7
-569.672
-27454
-573.661
-27165.3
-577.594
-26874.7
-581.471
-26582.2
-585.293
-26287.8
-589.06
-25991.6
-592.771
-25693.5
-596.428
-25393.7
-600.03
-25092
-603.577
-24788.6
-607.07
-24483.5
-610.508
-24176.7
-613.893
-23868.2
-617.223
-23558.1
-620.5
-23246.4
-623.724
-22933.1
-626.894
-22618.3
-630.011
-22301.9
-633.075
-21984
-636.087
-21664.6
-639.046
-21343.8
-641.953
-21021.5
-644.808
-20697.9
-647.611
-20372.8
-650.362
-20046.4
-653.062
-19718.7
-655.711
-19389.7
-658.308
-19059.5
-660.855
-18727.9
-663.351
-18395.2
-665.797
-18061.3
-668.193
-17726.1
-670.538
-17389.9
-672.834
-17052.5
-675.08
-16714
-677.277
-16374.5
-679.424
-16033.9
-681.523
-15692.2
-683.573
-15349.6
-685.574
-15006
-687.527
-14661.4
-689.431
-14316
-691.288
-13969.6
-693.097
-13622.3
-694.858
-13274.2
-696.571
-12925.2
-698.238
-12575.5
-699.857
-12224.9
-701.429
-11873.6
-702.955
-11521.5
-704.434
-11168.8
-705.867
-10815.3
-707.254
-10461.2
-708.595
-10106.4
-709.89
-9750.98
-711.139
-9394.97
-712.344
-9038.39
-713.503
-8681.24
-714.617
-8323.57
-715.686
-7965.38
-716.711
-7606.7
-717.692
-7247.55
-718.628
-6887.96
-719.52
-6527.94
-720.368
-6167.52
-721.173
-5806.72
-721.934
-5445.56
-722.651
-5084.07
-723.325
-4722.26
-723.956
-4360.15
-724.543
-3997.78
-725.086
-3635.15
-725.586
-3272.3
-726.042
-2909.24
-726.455
-2546
-726.823
-2182.59
-727.147
-1819.05
-727.426
-1455.38
-727.661
-1091.63
-727.852
-727.796
-727.998
-363.914
-728.101
-728.162
-715.805
2185.59
-1414.88
2132.66
-2081.82
2028.97
-2706.15
1891.69
-3283.48
1740.84
-3814.96
1594.66
-4306.02
1466.76
-4764.49
1364.73
-5198.94
1290.51
-5617.32
1241.83
-6026.19
1213.99
-6430.44
1201.51
-6833.39
1199.24
-7237.04
1202.98
-7642.43
1209.7
-8049.93
1217.37
-8459.55
1224.82
-8871.09
1231.43
-9284.23
1236.96
-9698.66
1241.35
-10114
1244.68
-10530.1
1247.03
-10946.6
1248.52
-11363.2
1249.25
-11779.8
1249.31
-12196.1
1248.77
-12612.1
1247.7
-13027.5
1246.15
-13442.3
1244.17
-13856.2
1241.79
-14269.1
1239.04
-14681.1
1235.95
-15091.9
1232.55
-15501.4
1228.86
-15909.6
1224.88
-16316.4
1220.64
-16721.7
1216.15
-17125.4
1211.43
-17527.4
1206.47
-17927.7
1201.3
-18326.2
1195.91
-18722.9
1190.32
-19117.6
1184.54
-19510.3
1178.56
-19901
1172.4
-20289.5
1166.05
-20675.9
1159.53
-21060.1
1152.84
-21441.9
1145.98
-21821.4
1138.95
-22198.5
1131.77
-22573.2
1124.43
-22945.4
1116.93
-23315
1109.28
-23682
1101.48
-24046.4
1093.54
-24408
1085.45
-24767
1077.23
-25123.1
1068.86
-25476.4
1060.36
-25826.9
1051.72
-26174.4
1042.95
-26518.9
1034.06
-26860.5
1025.03
-27198.9
1015.88
-27534.3
1006.61
-27866.6
997.213
-28195.7
987.7
-28521.6
978.069
-28844.2
968.324
-29163.6
958.465
-29479.6
948.496
-29792.3
938.418
-30101.6
928.232
-30407.5
917.942
-30709.8
907.548
-31008.7
897.053
-31304.1
886.459
-31595.9
875.768
-31884.1
864.981
-32168.7
854.101
-32449.6
843.13
-32726.9
832.069
-33000.4
820.921
-33270.2
809.688
-33536.2
798.371
-33798.4
786.972
-34056.8
775.494
-34311.3
763.939
-34562
752.308
-34808.8
740.603
-35051.6
728.827
-35290.5
716.981
-35525.4
705.068
-35756.4
693.089
-35983.3
681.046
-36206.2
668.943
-36425
656.779
-36639.8
644.558
-36850.5
632.282
-37057
619.952
-37259.5
607.57
-37457.8
595.139
-37651.9
582.661
-37841.9
570.137
-38027.7
557.57
-38209.3
544.962
-38386.6
532.314
-38559.8
519.628
-38728.7
506.908
-38893.4
494.154
-39053.8
481.368
-39209.9
468.554
-39361.7
455.712
-39509.3
442.844
-39652.6
429.953
-39791.5
417.041
-39926.2
404.109
-40056.5
391.16
-40182.6
378.195
-40304.3
365.217
-40421.6
352.227
-40534.7
339.227
-40643.4
326.219
-40747.8
313.206
-40847.8
300.188
-40943.5
287.168
-41034.9
274.148
-41121.9
261.13
-41204.6
248.115
-41282.9
235.106
-41357
222.103
-41426.7
209.11
-41492
196.127
-41553.1
183.157
-41609.8
170.201
-41662.2
157.261
-41710.4
144.339
-41754.2
131.436
-41793.7
118.554
-41829
105.696
-41859.9
92.8616
-41886.6
80.0535
-41909.1
67.2733
-41927.3
54.5225
-41941.2
41.8027
-41951
29.1154
-41956.5
16.4623
-41957.8
3.84476
-41954.9
-8.7356
-41947.9
-21.2773
-41936.7
-33.7789
-41921.3
-46.239
-41901.8
-58.6561
-41878.2
-71.0288
-41850.4
-83.3558
-41818.6
-95.6356
-41782.7
-107.867
-41742.7
-120.049
-41698.7
-132.179
-41650.7
-144.258
-41598.7
-156.282
-41542.7
-168.252
-41482.7
-180.166
-41418.8
-192.023
-41350.9
-203.821
-41279.1
-215.561
-41203.5
-227.239
-41123.9
-238.856
-41040.6
-250.411
-40953.4
-261.901
-40862.3
-273.327
-40767.5
-284.688
-40669
-295.982
-40566.7
-307.208
-40460.7
-318.366
-40351
-329.454
-40237.6
-340.473
-40120.5
-351.42
-39999.9
-362.296
-39875.6
-373.099
-39747.8
-383.828
-39616.5
-394.484
-39481.6
-405.064
-39343.2
-415.57
-39201.3
-425.999
-39056
-436.351
-38907.2
-446.626
-38755.1
-456.823
-38599.6
-466.941
-38440.8
-476.98
-38278.6
-486.94
-38113.1
-496.819
-37944.4
-506.618
-37772.5
-516.335
-37597.3
-525.971
-37418.9
-535.525
-37237.4
-544.997
-37052.8
-554.386
-36865.1
-563.692
-36674.3
-572.914
-36480.4
-582.053
-36283.6
-591.108
-36083.7
-600.078
-35880.9
-608.964
-35675.2
-617.765
-35466.5
-626.481
-35255
-635.112
-35040.7
-643.658
-34823.5
-652.118
-34603.5
-660.492
-34380.8
-668.781
-34155.3
-676.984
-33927.2
-685.1
-33696.3
-693.131
-33462.8
-701.075
-33226.7
-708.934
-32988
-716.706
-32746.8
-724.392
-32503
-731.992
-32256.7
-739.505
-32008
-746.933
-31756.8
-754.274
-31503.1
-761.529
-31247.1
-768.698
-30988.8
-775.782
-30728.1
-782.779
-30465.1
-789.691
-30199.8
-796.517
-29932.3
-803.258
-29662.6
-809.914
-29390.6
-816.484
-29116.6
-822.97
-28840.4
-829.37
-28562
-835.686
-28281.7
-841.917
-27999.2
-848.065
-27714.8
-854.128
-27428.3
-860.107
-27139.9
-866.003
-26849.6
-871.815
-26557.3
-877.545
-26263.2
-883.191
-25967.2
-888.755
-25669.4
-894.236
-25369.8
-899.635
-25068.4
-904.953
-24765.3
-910.189
-24460.4
-915.343
-24153.9
-920.417
-23845.7
-925.409
-23535.9
-930.322
-23224.4
-935.154
-22911.4
-939.906
-22596.9
-944.579
-22280.8
-949.172
-21963.1
-953.686
-21644.1
-958.122
-21323.5
-962.48
-21001.6
-966.759
-20678.2
-970.961
-20353.5
-975.085
-20027.4
-979.132
-19700
-983.103
-19371.3
-986.996
-19041.3
-990.814
-18710.1
-994.556
-18377.7
-998.222
-18044
-1001.81
-17709.2
-1005.33
-17373.3
-1008.77
-17036.2
-1012.14
-16698.1
-1015.43
-16358.8
-1018.65
-16018.5
-1021.8
-15677.2
-1024.87
-15334.9
-1027.87
-14991.6
-1030.79
-14647.4
-1033.65
-14302.2
-1036.43
-13956.2
-1039.14
-13609.2
-1041.78
-13261.4
-1044.35
-12912.8
-1046.85
-12563.4
-1049.28
-12213.2
-1051.63
-11862.2
-1053.92
-11510.5
-1056.14
-11158
-1058.29
-10804.9
-1060.36
-10451.1
-1062.37
-10096.7
-1064.32
-9741.6
-1066.19
-9385.93
-1067.99
-9029.69
-1069.73
-8672.89
-1071.4
-8315.55
-1073
-7957.71
-1074.54
-7599.37
-1076.01
-7240.57
-1077.41
-6881.32
-1078.75
-6521.65
-1080.02
-6161.58
-1081.23
-5801.12
-1082.37
-5440.31
-1083.44
-5079.17
-1084.45
-4717.7
-1085.4
-4355.95
-1086.28
-3993.92
-1087.09
-3631.65
-1087.84
-3269.14
-1088.53
-2906.43
-1089.15
-2543.54
-1089.7
-2180.49
-1090.18
-1817.29
-1090.6
-1453.98
-1090.96
-1090.57
-1091.24
-727.092
-1091.46
-363.56
-1091.62
-1091.7
-695.929
2881.31
-1376.87
2813.39
-2029.33
2681.23
-2644.01
2506.18
-3216.69
2313.33
-3747.99
2125.77
-4242.29
1960.88
-4706.25
1828.51
-5147.33
1731.41
-5572.59
1666.9
-5987.97
1629.2
-6398.02
1611.39
-6805.92
1606.95
-7213.65
1610.53
-7622.32
1618.19
-8032.43
1627.31
-8444.11
1636.32
-8857.24
1644.39
-9271.62
1651.16
-9687
1656.56
-10103.1
1660.62
-10519.7
1663.47
-10936.6
1665.22
-11353.5
1666.01
-11770.3
1665.94
-12186.9
1665.1
-12602.9
1663.57
-13018.3
1661.42
-13433.1
1658.71
-13846.9
1655.48
-14259.8
1651.76
-14671.6
1647.61
-15082.3
1643.04
-15491.7
1638.08
-15899.7
1632.75
-16306.3
1627.08
-16711.4
1621.08
-17114.9
1614.76
-17516.8
1608.14
-17916.9
1601.22
-18315.2
1594.03
-18711.6
1586.57
-19106.1
1578.85
-19498.6
1570.87
-19889
1562.65
-20277.3
1554.19
-20663.4
1545.49
-21047.3
1536.56
-21428.9
1527.41
-21808.2
1518.04
-22185
1508.46
-22559.4
1498.67
-22931.3
1488.67
-23300.7
1478.48
-23667.5
1468.08
-24031.6
1457.49
-24393
1446.71
-24751.7
1435.74
-25107.5
1424.58
-25460.6
1413.25
-25810.8
1401.73
-26158
1390.04
-26502.3
1378.18
-26843.6
1366.15
-27181.8
1353.95
-27517
1341.59
-27849
1329.07
-28177.8
1316.39
-28503.4
1303.55
-28825.8
1290.56
-29144.9
1277.42
-29460.7
1264.13
-29773.1
1250.69
-30082.2
1237.11
-30387.8
1223.4
-30689.9
1209.54
-30988.6
1195.55
-31283.7
1181.43
-31575.3
1167.18
-31863.2
1152.8
-32147.6
1138.3
-32428.3
1123.67
-32705.3
1108.93
-32978.6
1094.07
-33248.1
1079.1
-33513.9
1064.01
-33775.9
1048.82
-34034.1
1033.52
-34288.4
1018.12
-34538.8
1002.61
-34785.4
987.011
-35028
971.314
-35266.7
955.524
-35501.4
939.645
-35732.1
923.678
-35958.8
907.627
-36181.5
891.493
-36400.1
875.28
-36614.7
858.991
-36825.2
842.627
-37031.5
826.193
-37233.8
809.689
-37431.9
793.12
-37625.8
776.488
-37815.6
759.795
-38001.2
743.044
-38182.6
726.239
-38359.8
709.38
-38532.8
692.472
-38701.5
675.517
-38866
658.518
-39026.2
641.476
-39182.2
624.396
-39333.9
607.279
-39481.3
590.128
-39624.4
572.947
-39763.2
555.736
-39897.7
538.5
-40027.9
521.24
-40153.8
503.96
-40275.3
486.662
-40392.5
469.348
-40505.4
452.021
-40614
434.684
-40718.2
417.339
-40818.1
399.989
-40913.7
382.635
-41004.9
365.282
-41091.9
347.931
-41174.4
330.584
-41252.7
313.245
-41326.6
295.915
-41396.1
278.596
-41461.4
261.293
-41522.3
244.006
-41579
226.738
-41631.3
209.491
-41679.3
192.268
-41723
175.072
-41762.5
157.903
-41797.6
140.765
-41828.5
123.659
-41855.1
106.589
-41877.5
89.5554
-41895.6
72.5612
-41909.5
55.6084
-41919.2
38.699
-41924.6
21.835
-41925.9
5.01866
-41922.9
-11.7482
-41915.8
-28.4635
-41904.6
-45.1253
-41889.1
-61.7317
-41869.6
-78.2808
-41845.9
-94.7707
-41818.1
-111.2
-41786.3
-127.566
-41750.4
-143.867
-41710.4
-160.102
-41666.3
-176.269
-41618.3
-192.367
-41566.2
-208.392
-41510.2
-224.345
-41450.2
-240.223
-41386.3
-256.025
-41318.4
-271.75
-41246.6
-287.395
-41171
-302.959
-41091.4
-318.441
-41008.1
-333.84
-40920.9
-349.154
-40829.9
-364.382
-40735.1
-379.522
-40636.5
-394.573
-40534.3
-409.534
-40428.3
-424.404
-40318.6
-439.182
-40205.3
-453.866
-40088.3
-468.456
-39967.7
-482.949
-39843.5
-497.346
-39715.7
-511.645
-39584.4
-525.846
-39449.5
-539.946
-39311.2
-553.946
-39169.4
-567.845
-39024.1
-581.641
-38875.4
-595.334
-38723.4
-608.923
-38568
-622.407
-38409.2
-635.785
-38247.1
-649.058
-38081.7
-662.223
-37913.1
-675.281
-37741.2
-688.231
-37566.2
-701.073
-37387.9
-713.805
-37206.5
-726.427
-37022
-738.939
-36834.4
-751.34
-36643.7
-763.63
-36449.9
-775.808
-36253.2
-787.875
-36053.5
-799.829
-35850.8
-811.67
-35645.2
-823.398
-35436.7
-835.014
-35225.3
-846.515
-35011.1
-857.903
-34794
-869.176
-34574.2
-880.336
-34351.6
-891.381
-34126.3
-902.312
-33898.3
-913.128
-33667.6
-923.829
-33434.3
-934.416
-33198.3
-944.887
-32959.8
-955.244
-32718.7
-965.486
-32475.1
-975.613
-32229
-985.625
-31980.4
-995.523
-31729.4
-1005.31
-31476
-1014.97
-31220.1
-1024.53
-30962
-1033.97
-30701.5
-1043.29
-30438.7
-1052.5
-30173.6
-1061.6
-29906.3
-1070.58
-29636.7
-1079.45
-29365
-1088.2
-29091.2
-1096.84
-28815.2
-1105.37
-28537.1
-1113.79
-28256.9
-1122.09
-27974.7
-1130.28
-27690.4
-1138.36
-27404.2
-1146.33
-27116
-1154.19
-26825.9
-1161.93
-26533.9
-1169.56
-26240
-1177.09
-25944.2
-1184.5
-25646.7
-1191.81
-25347.3
-1199
-25046.2
-1206.08
-24743.3
-1213.06
-24438.7
-1219.93
-24132.4
-1226.69
-23824.5
-1233.34
-23514.9
-1239.89
-23203.7
-1246.33
-22891
-1252.66
-22576.7
-1258.88
-22260.8
-1265
-21943.5
-1271.02
-21624.7
-1276.93
-21304.4
-1282.74
-20982.7
-1288.44
-20659.6
-1294.04
-20335.2
-1299.53
-20009.4
-1304.92
-19682.3
-1310.21
-19353.8
-1315.4
-19024.2
-1320.49
-18693.2
-1325.47
-18361.1
-1330.36
-18027.7
-1335.14
-17693.2
-1339.83
-17357.6
-1344.41
-17020.8
-1348.9
-16682.9
-1353.29
-16344
-1357.58
-16004
-1361.77
-15663
-1365.86
-15321
-1369.86
-14978
-1373.76
-14634.1
-1377.56
-14289.2
-1381.27
-13943.5
-1384.88
-13596.8
-1388.4
-13249.4
-1391.82
-12901
-1395.15
-12551.9
-1398.38
-12202
-1401.52
-11851.3
-1404.57
-11499.9
-1407.53
-11147.8
-1410.39
-10795
-1413.16
-10441.5
-1415.83
-10087.4
-1418.42
-9732.68
-1420.92
-9377.34
-1423.32
-9021.41
-1425.64
-8664.94
-1427.86
-8307.93
-1430
-7950.41
-1432.04
-7592.4
-1434
-7233.92
-1435.87
-6875
-1437.65
-6515.66
-1439.35
-6155.92
-1440.95
-5795.79
-1442.47
-5435.31
-1443.91
-5074.5
-1445.25
-4713.37
-1446.51
-4351.94
-1447.68
-3990.25
-1448.77
-3628.31
-1449.77
-3266.14
-1450.68
-2903.76
-1451.5
-2541.2
-1452.24
-2178.48
-1452.89
-1815.62
-1453.44
-1452.64
-1453.91
-1089.57
-1454.3
-726.426
-1454.59
-363.229
-1454.79
-1454.92
-676.852
3557.96
-1340.25
3476.59
-1978.53
3319.3
-2583.46
3110.92
-3151.08
2880.76
-3681.56
2656.06
-4178.41
2457.55
-4647.22
2297.14
-5094.4
2178.41
-5526.17
2098.49
-5947.87
2050.72
-6363.68
2027.02
-6776.59
2019.69
-7188.55
2022.32
-7600.72
2030.18
-8013.68
2040.09
-8427.64
2050.1
-8842.61
2059.18
-9258.45
2066.83
-9675
2072.93
-10092
2077.49
-10509.4
2080.64
-10926.8
2082.5
-11344.2
2083.22
-11761.4
2082.91
-12178.1
2081.69
-12594.4
2079.63
-13009.9
2076.82
-13424.7
2073.33
-13838.6
2069.2
-14251.5
2064.48
-14663.3
2059.23
-15073.9
2053.46
-15483.2
2047.22
-15891.2
2040.52
-16297.7
2033.4
-16702.6
2025.86
-17106
2017.94
-17507.7
2009.64
-17907.6
2000.98
-18305.7
1991.98
-18701.9
1982.64
-19096.2
1972.97
-19488.5
1962.99
-19878.7
1952.7
-20266.8
1942.11
-20652.8
1931.24
-21036.4
1920.07
-21417.8
1908.63
-21796.9
1896.92
-22173.5
1884.94
-22547.7
1872.69
-22919.4
1860.2
-23288.5
1847.45
-23655
1834.45
-24018.9
1821.21
-24380.1
1807.73
-24738.6
1794.02
-25094.2
1780.08
-25447
1765.91
-25797
1751.52
-26144
1736.91
-26488.1
1722.08
-26829.1
1707.04
-27167.1
1691.8
-27502
1676.35
-27833.8
1660.69
-28162.4
1644.84
-28487.8
1628.8
-28810
1612.56
-29128.9
1596.14
-29444.4
1579.53
-29756.6
1562.74
-30065.4
1545.77
-30370.8
1528.63
-30672.7
1511.31
-30971.2
1493.83
-31266.1
1476.18
-31557.4
1458.37
-31845.2
1440.4
-32129.3
1422.28
-32409.8
1404
-32686.6
1385.58
-32959.6
1367.01
-33229
1348.3
-33494.6
1329.44
-33756.3
1310.46
-34014.3
1291.34
-34268.4
1272.09
-34518.7
1252.71
-34765
1233.22
-35007.4
1213.6
-35245.9
1193.87
-35480.4
1174.03
-35710.9
1154.07
-35937.5
1134.01
-36160
1113.85
-36378.4
1093.59
-36592.8
1073.24
-36803.1
1052.79
-37009.3
1032.25
-37211.3
1011.63
-37409.3
990.922
-37603
970.137
-37792.6
949.277
-37978.1
928.345
-38159.3
907.344
-38336.3
886.278
-38509.1
865.149
-38677.7
843.961
-38842
822.718
-39002.1
801.423
-39157.9
780.079
-39309.4
758.69
-39456.6
737.258
-39599.6
715.788
-39738.2
694.281
-39872.6
672.743
-40002.6
651.175
-40128.4
629.582
-40249.8
607.966
-40366.9
586.331
-40479.6
564.679
-40588.1
543.015
-40692.2
521.341
-40792
499.66
-40887.4
477.976
-40978.5
456.291
-41065.3
434.61
-41147.7
412.934
-41225.9
391.267
-41299.7
369.612
-41369.1
347.972
-41434.3
326.35
-41495.1
304.748
-41551.6
283.171
-41603.9
261.62
-41651.8
240.1
-41695.4
218.611
-41734.8
197.158
-41769.8
175.743
-41800.6
154.369
-41827.2
133.039
-41849.4
111.755
-41867.5
90.5204
-41881.3
69.3372
-41890.9
48.2084
-41896.3
27.1365
-41897.4
6.12406
-41894.4
-14.8264
-41887.3
-35.7125
-41875.9
-56.5317
-41860.5
-77.2815
-41840.8
-97.9598
-41817.1
-118.564
-41789.3
-139.092
-41757.4
-159.541
-41721.4
-179.91
-41681.4
-200.196
-41637.3
-220.396
-41589.3
-240.509
-41537.2
-260.533
-41481.1
-280.466
-41421.1
-300.305
-41357.1
-320.05
-41289.2
-339.697
-41217.5
-359.245
-41141.8
-378.692
-41062.2
-398.036
-40978.9
-417.276
-40891.7
-436.41
-40800.7
-455.436
-40705.9
-474.353
-40607.3
-493.159
-40505.1
-511.852
-40399.1
-530.431
-40289.4
-548.895
-40176.1
-567.242
-40059.1
-585.47
-39938.6
-603.579
-39814.4
-621.566
-39686.6
-639.432
-39555.3
-657.174
-39420.5
-674.791
-39282.2
-692.283
-39140.5
-709.648
-38995.3
-726.884
-38846.7
-743.992
-38694.6
-760.97
-38539.3
-777.817
-38380.6
-794.532
-38218.5
-811.114
-38053.2
-827.563
-37884.7
-843.877
-37712.9
-860.056
-37537.9
-876.1
-37359.7
-892.006
-37178.4
-907.776
-36993.9
-923.408
-36806.4
-938.901
-36615.8
-954.256
-36422.2
-969.471
-36225.5
-984.546
-36025.9
-999.48
-35823.3
-1014.27
-35617.8
-1028.93
-35409.4
-1043.44
-35198.1
-1057.81
-34984
-1072.03
-34767.1
-1086.12
-34547.4
-1100.06
-34324.9
-1113.86
-34099.7
-1127.51
-33871.9
-1141.03
-33641.3
-1154.39
-33408.1
-1167.62
-33172.3
-1180.7
-32933.9
-1193.64
-32693
-1206.44
-32449.5
-1219.09
-32203.6
-1231.6
-31955.1
-1243.96
-31704.3
-1256.18
-31451
-1268.26
-31195.3
-1280.19
-30937.3
-1291.98
-30677
-1303.63
-30414.4
-1315.14
-30149.5
-1326.5
-29882.3
-1337.72
-29613
-1348.8
-29341.4
-1359.74
-29067.8
-1370.53
-28791.9
-1381.19
-28514
-1391.7
-28234.1
-1402.07
-27952
-1412.31
-27668
-1422.4
-27382
-1432.35
-27094
-1442.16
-26804.1
-1451.84
-26512.3
-1461.38
-26218.6
-1470.77
-25923
-1480.04
-25625.7
-1489.16
-25326.5
-1498.15
-25025.6
-1507
-24723
-1515.71
-24418.6
-1524.29
-24112.6
-1532.74
-23804.8
-1541.05
-23495.5
-1549.22
-23184.6
-1557.26
-22872
-1565.17
-22558
-1572.95
-22242.4
-1580.6
-21925.3
-1588.11
-21606.7
-1595.49
-21286.7
-1602.75
-20965.2
-1609.87
-20642.4
-1616.86
-20318.2
-1623.73
-19992.7
-1630.46
-19665.8
-1637.07
-19337.6
-1643.55
-19008.2
-1649.9
-18677.5
-1656.13
-18345.7
-1662.23
-18012.6
-1668.21
-17678.3
-1674.06
-17342.9
-1679.79
-17006.4
-1685.39
-16668.8
-1690.87
-16330.2
-1696.23
-15990.5
-1701.47
-15649.7
-1706.58
-15308
-1711.57
-14965.3
-1716.44
-14621.7
-1721.19
-14277.1
-1725.82
-13931.6
-1730.34
-13585.3
-1734.73
-13238.1
-1739
-12890.1
-1743.16
-12541.2
-1747.2
-12191.6
-1751.12
-11841.2
-1754.93
-11490.1
-1758.62
-11138.3
-1762.19
-10785.8
-1765.65
-10432.6
-1769
-10078.8
-1772.23
-9724.36
-1775.35
-9369.31
-1778.35
-9013.69
-1781.24
-8657.52
-1784.02
-8300.81
-1786.69
-7943.59
-1789.24
-7585.89
-1791.69
-7227.72
-1794.03
-6869.11
-1796.25
-6510.07
-1798.37
-6150.63
-1800.37
-5790.82
-1802.27
-5430.65
-1804.06
-5070.14
-1805.74
-4709.32
-1807.32
-4348.2
-1808.78
-3986.82
-1810.14
-3625.19
-1811.38
-3263.33
-1812.52
-2901.27
-1813.55
-2539.02
-1814.47
-2176.61
-1815.28
-1814.06
-1815.98
-1451.39
-1816.56
-1088.63
-1817.04
-725.799
-1817.4
-362.914
-1817.66
-1817.81
-657.423
4215.17
-1303.02
4121.99
-1926.78
3942.87
-2521.54
3705.48
-3083.6
3442.63
-3612.8
3185.07
-4111.79
2956.37
-4585.16
2770.33
-5038.32
2631.39
-5476.62
2536.61
-5904.78
2478.71
-6326.6
2448.66
-6744.83
2437.74
-7161.36
2438.68
-7577.38
2446.01
-7993.52
2456.05
-8410.09
2466.5
-8827.19
2476.1
-9244.77
2484.24
-9662.73
2490.71
-10080.9
2495.5
-10499.2
2498.74
-10917.4
2500.53
-11335.4
2501.04
-11753
2500.38
-12170.2
2498.66
-12586.7
2496
-13002.5
2492.46
-13417.5
2488.12
-13831.5
2483.05
-14244.5
2477.29
-14656.4
2470.9
-15067
2463.91
-15476.3
2456.35
-15884.2
2448.26
-16290.7
2439.67
-16695.5
2430.59
-17098.8
2421.04
-17500.4
2411.05
-17900.2
2400.64
-18298.2
2389.81
-18694.3
2378.58
-19088.5
2366.96
-19480.6
2354.97
-19870.7
2342.61
-20258.6
2329.89
-20644.4
2316.82
-21027.9
2303.42
-21409.1
2289.68
-21788
2275.62
-22164.5
2261.23
-22538.5
2246.54
-22910
2231.53
-23278.9
2216.23
-23645.3
2200.63
-24009
2184.74
-24370
2168.57
-24728.2
2152.11
-25083.7
2135.38
-25436.3
2118.38
-25786.1
2101.11
-26132.9
2083.57
-26476.7
2065.78
-26817.6
2047.74
-27155.4
2029.45
-27490.1
2010.91
-27821.7
1992.13
-28150.1
1973.11
-28475.3
1953.86
-28797.3
1934.38
-29116
1914.67
-29431.4
1894.74
-29743.4
1874.6
-30052
1854.24
-30357.2
1833.67
-30658.9
1812.89
-30957.1
1791.92
-31251.8
1770.74
-31543
1749.37
-31830.6
1727.82
-32114.5
1706.07
-32394.8
1684.14
-32671.4
1662.04
-32944.3
1639.76
-33213.4
1617.31
-33478.8
1594.69
-33740.4
1571.91
-33998.2
1548.97
-34252.1
1525.88
-34502.2
1502.63
-34748.4
1479.24
-34990.6
1455.71
-35228.9
1432.04
-35463.2