/*--------------------------------*- C++ -*----------------------------------*\
| =========                 |                                                 |
| \\      /  F ield         | OpenFOAM: The Open Source CFD Toolbox           |
|  \\    /   O peration     | Version:  2212                                  |
|   \\  /    A nd           | Website:  www.openfoam.com                      |
|    \\/     M anipulation  |                                                 |
\*---------------------------------------------------------------------------*/
FoamFile
{
    version     2.0;
    format      ascii;
    arch        "LSB;label=32;scalar=64";
    class       volScalarField;
    location    "180";
    object      p_rgh;
}
// * * * * * * * * * * * * * * * * * * * * * * * * * * * * * * * * * * * * * //

dimensions      [1 -1 -2 0 0 0 0];

internalField   nonuniform List<scalar> 
204800
(
-5.59879
-5.59574
-5.58956
-5.58033
-5.568
-5.55262
-5.53416
-5.51267
-5.48813
-5.46059
-5.43005
-5.39655
-5.36011
-5.32075
-5.27849
-5.23334
-5.18532
-5.13442
-5.08066
-5.02402
-4.96451
-4.90211
-4.83681
-4.76857
-4.69739
-4.62323
-4.54606
-4.46584
-4.38253
-4.29611
-4.20652
-4.11374
-4.01772
-3.91842
-3.81581
-3.70986
-3.60053
-3.4878
-3.37164
-3.25202
-3.12894
-3.00238
-2.87232
-2.73876
-2.6017
-2.46113
-2.31707
-2.16953
-2.01851
-1.86403
-1.70611
-1.54478
-1.38007
-1.212
-1.04062
-0.865957
-0.688056
-0.506962
-0.322723
-0.135389
0.0549852
0.248344
0.444627
0.643775
0.845723
1.05041
1.25775
1.4677
1.68017
1.89509
2.11239
2.33199
2.55382
2.77779
3.00382
3.23184
3.46177
3.69353
3.92702
4.16218
4.39892
4.63715
4.87681
5.11779
5.36003
5.60344
5.84794
6.09345
6.33989
6.58719
6.83526
7.08403
7.33343
7.58337
7.83378
8.0846
8.33575
8.58717
8.83877
9.0905
9.34228
9.59406
9.84578
10.0974
10.3487
10.5999
10.8507
11.1012
11.3512
11.6008
11.8499
12.0984
12.3463
12.5935
12.84
13.0857
13.3307
13.5748
13.8181
14.0604
14.3018
14.5422
14.7816
15.0199
15.2572
15.4933
15.7284
15.9622
16.1949
16.4263
16.6566
16.8855
17.1132
17.3396
17.5647
17.7885
18.0109
18.2319
18.4516
18.6698
18.8867
19.1021
19.3162
19.5288
19.7399
19.9496
20.1579
20.3646
20.5699
20.7737
20.9761
21.1769
21.3763
21.5742
21.7706
21.9655
22.1589
22.3508
22.5412
22.7301
22.9175
23.1034
23.2878
23.4707
23.6522
23.8321
24.0106
24.1876
24.3631
24.5372
24.7097
24.8809
25.0505
25.2187
25.3855
25.5508
25.7147
25.8771
26.0381
26.1977
26.3559
26.5126
26.668
26.8219
26.9745
27.1257
27.2755
27.4239
27.571
27.7167
27.8611
28.0041
28.1457
28.2861
28.4251
28.5628
28.6991
28.8342
28.968
29.1004
29.2316
29.3615
29.4902
29.6175
29.7436
29.8684
29.992
30.1144
30.2355
30.3553
30.474
30.5914
30.7076
30.8226
30.9364
31.049
31.1604
31.2706
31.3796
31.4874
31.5941
31.6996
31.8039
31.9071
32.0091
32.11
32.2097
32.3083
32.4057
32.502
32.5972
32.6912
32.7841
32.8759
32.9666
33.0562
33.1446
33.232
33.3182
33.4033
33.4874
33.5703
33.6522
33.733
33.8127
33.8913
33.9688
34.0452
34.1206
34.1949
34.2681
34.3403
34.4113
34.4814
34.5503
34.6182
34.685
34.7508
34.8155
34.8791
34.9417
35.0033
35.0638
35.1232
35.1816
35.2389
35.2952
35.3504
35.4046
35.4577
35.5098
35.5609
35.6109
35.6599
35.7078
35.7546
35.8005
35.8453
35.889
35.9317
35.9734
36.014
36.0536
36.0921
36.1296
36.1661
36.2015
36.2359
36.2692
36.3015
36.3327
36.363
36.3921
36.4203
36.4474
36.4734
36.4984
36.5224
36.5453
36.5672
36.588
36.6078
36.6266
36.6443
36.661
36.6766
36.6912
36.7048
36.7173
36.7287
36.7392
36.7486
36.7569
36.7642
36.7704
36.7757
36.7798
36.783
36.785
36.7861
-5.55036
-5.54758
-5.54185
-5.53332
-5.5219
-5.50766
-5.49055
-5.47061
-5.44781
-5.42217
-5.39366
-5.36229
-5.32804
-5.29091
-5.25089
-5.20797
-5.16213
-5.11336
-5.06164
-5.00695
-4.94927
-4.88858
-4.82485
-4.75806
-4.68818
-4.61518
-4.53904
-4.45973
-4.37721
-4.29147
-4.20248
-4.11019
-4.0146
-3.91567
-3.81338
-3.7077
-3.59861
-3.4861
-3.37013
-3.2507
-3.1278
-3.0014
-2.87152
-2.73813
-2.60124
-2.46086
-2.31698
-2.16962
-2.0188
-1.86453
-1.70682
-1.54571
-1.38123
-1.2134
-1.04226
-0.867844
-0.6902
-0.509371
-0.325403
-0.138348
0.0517404
0.244807
0.440791
0.639634
0.84127
1.04563
1.25266
1.46227
1.67441
1.88899
2.10594
2.32519
2.54666
2.77026
2.99593
3.22358
3.45313
3.68451
3.91762
4.15239
4.38873
4.62657
4.86582
5.1064
5.34822
5.59122
5.8353
6.0804
6.32642
6.57329
6.82094
7.06928
7.31824
7.56775
7.81773
8.06811
8.31882
8.56979
8.82095
9.07224
9.32358
9.57491
9.82618
10.0773
10.3282
10.5789
10.8293
11.0793
11.3289
11.5781
11.8267
12.0747
12.3222
12.5689
12.815
13.0603
13.3048
13.5485
13.7912
14.0331
14.2741
14.514
14.753
14.9909
15.2277
15.4634
15.698
15.9314
16.1636
16.3947
16.6245
16.853
17.0803
17.3062
17.5309
17.7542
17.9762
18.1968
18.4161
18.6339
18.8504
19.0654
19.279
19.4912
19.7019
19.9112
20.1191
20.3254
20.5303
20.7338
20.9357
21.1362
21.3352
21.5327
21.7287
21.9232
22.1162
22.3077
22.4977
22.6863
22.8733
23.0589
23.2429
23.4255
23.6066
23.7862
23.9643
24.141
24.3161
24.4898
24.6621
24.8328
25.0022
25.17
25.3365
25.5014
25.665
25.8271
25.9878
26.1471
26.3049
26.4614
26.6164
26.7701
26.9223
27.0732
27.2227
27.3708
27.5176
27.663
27.8071
27.9498
28.0912
28.2313
28.37
28.5074
28.6435
28.7783
28.9118
29.044
29.1749
29.3046
29.4329
29.56
29.6859
29.8104
29.9338
30.0559
30.1767
30.2964
30.4148
30.532
30.6479
30.7627
30.8762
30.9886
31.0998
31.2098
31.3186
31.4262
31.5326
31.6379
31.742
31.845
31.9468
32.0475
32.147
32.2453
32.3426
32.4387
32.5337
32.6275
32.7202
32.8118
32.9023
32.9917
33.08
33.1672
33.2532
33.3382
33.4221
33.5049
33.5865
33.6672
33.7467
33.8251
33.9025
33.9788
34.054
34.1281
34.2012
34.2732
34.3441
34.414
34.4828
34.5506
34.6172
34.6829
34.7475
34.811
34.8734
34.9349
34.9952
35.0545
35.1128
35.17
35.2262
35.2813
35.3354
35.3884
35.4404
35.4913
35.5412
35.5901
35.6379
35.6847
35.7304
35.7751
35.8188
35.8614
35.903
35.9435
35.983
36.0215
36.0589
36.0953
36.1306
36.1649
36.1982
36.2304
36.2616
36.2918
36.3209
36.349
36.376
36.402
36.4269
36.4509
36.4737
36.4956
36.5164
36.5361
36.5549
36.5725
36.5892
36.6048
36.6194
36.6329
36.6454
36.6568
36.6672
36.6766
36.6849
36.6922
36.6984
36.7036
36.7078
36.7109
36.713
36.714
-5.56044
-5.55765
-5.55196
-5.54348
-5.53213
-5.51797
-5.50096
-5.48113
-5.45844
-5.43292
-5.40453
-5.37329
-5.33917
-5.30216
-5.26226
-5.21944
-5.1737
-5.12501
-5.07335
-5.01871
-4.96107
-4.90039
-4.83665
-4.76983
-4.6999
-4.62683
-4.5506
-4.47118
-4.38855
-4.30267
-4.21353
-4.12108
-4.02532
-3.92621
-3.82374
-3.71787
-3.60859
-3.49588
-3.37973
-3.26011
-3.13701
-3.01043
-2.88036
-2.7468
-2.60973
-2.46918
-2.32514
-2.17762
-2.02663
-1.87221
-1.71435
-1.5531
-1.38847
-1.2205
-1.04923
-0.874681
-0.696909
-0.515955
-0.331866
-0.144693
0.0455107
0.238689
0.434783
0.633732
0.835471
1.03994
1.24706
1.45677
1.669
1.88367
2.1007
2.32004
2.54158
2.76527
2.99102
3.21874
3.44836
3.6798
3.91298
4.14781
4.38421
4.62211
4.86141
5.10204
5.34392
5.58696
5.83109
6.07623
6.32229
6.56919
6.81687
7.06525
7.31424
7.56377
7.81378
8.06418
8.31491
8.56589
8.81707
9.06836
9.31971
9.57105
9.82232
10.0735
10.3244
10.5751
10.8255
11.0755
11.3251
11.5742
11.8228
12.0708
12.3182
12.565
12.811
13.0563
13.3008
13.5444
13.7872
14.029
14.2699
14.5099
14.7488
14.9866
15.2234
15.4591
15.6936
15.927
16.1592
16.3902
16.6199
16.8484
17.0756
17.3015
17.5261
17.7494
17.9713
18.1919
18.4111
18.6289
18.8453
19.0603
19.2738
19.486
19.6966
19.9059
20.1137
20.32
20.5248
20.7282
20.9301
21.1305
21.3294
21.5268
21.7228
21.9172
22.1101
22.3016
22.4916
22.68
22.867
23.0525
23.2365
23.419
23.6
23.7795
23.9576
24.1342
24.3093
24.4829
24.6551
24.8258
24.9951
25.1629
25.3292
25.4941
25.6576
25.8197
25.9803
26.1395
26.2973
26.4537
26.6087
26.7622
26.9144
27.0653
27.2147
27.3628
27.5095
27.6548
27.7988
27.9415
28.0828
28.2228
28.3615
28.4988
28.6349
28.7696
28.903
29.0352
29.166
29.2956
29.4239
29.551
29.6768
29.8013
29.9246
30.0466
30.1674
30.287
30.4053
30.5224
30.6384
30.7531
30.8666
30.9789
31.09
31.1999
31.3087
31.4162
31.5226
31.6279
31.7319
31.8349
31.9366
32.0372
32.1367
32.235
32.3322
32.4283
32.5232
32.617
32.7097
32.8012
32.8917
32.981
33.0692
33.1564
33.2424
33.3273
33.4112
33.4939
33.5755
33.6561
33.7356
33.814
33.8913
33.9676
34.0427
34.1169
34.1899
34.2619
34.3328
34.4026
34.4714
34.5391
34.6057
34.6713
34.7359
34.7994
34.8618
34.9232
34.9835
35.0428
35.101
35.1582
35.2144
35.2694
35.3235
35.3765
35.4285
35.4794
35.5293
35.5781
35.6259
35.6726
35.7184
35.763
35.8067
35.8493
35.8908
35.9313
35.9708
36.0092
36.0466
36.083
36.1183
36.1526
36.1859
36.2181
36.2493
36.2794
36.3085
36.3366
36.3636
36.3896
36.4145
36.4384
36.4613
36.4831
36.5039
36.5236
36.5424
36.56
36.5767
36.5923
36.6068
36.6203
36.6328
36.6442
36.6546
36.664
36.6723
36.6796
36.6858
36.691
36.6952
36.6983
36.7004
36.7014
-5.53942
-5.53679
-5.53144
-5.52345
-5.51275
-5.4994
-5.48334
-5.46459
-5.44311
-5.4189
-5.39191
-5.36214
-5.32953
-5.29408
-5.25573
-5.21447
-5.17025
-5.12305
-5.07283
-5.01955
-4.96319
-4.9037
-4.84106
-4.77524
-4.70621
-4.63394
-4.5584
-4.47957
-4.39743
-4.31196
-4.22314
-4.13095
-4.03537
-3.93639
-3.83399
-3.72816
-3.61888
-3.50615
-3.38994
-3.27026
-3.14709
-3.02043
-2.89028
-2.75663
-2.61948
-2.47885
-2.33474
-2.18716
-2.03612
-1.88165
-1.72375
-1.56247
-1.39782
-1.22984
-1.05856
-0.88402
-0.706262
-0.525329
-0.341269
-0.154133
0.0360256
0.229151
0.425185
0.624066
0.825731
1.03011
1.23715
1.44676
1.65889
1.87345
2.09037
2.30958
2.531
2.75455
2.98015
3.20773
3.4372
3.66848
3.90149
4.13615
4.37238
4.61009
4.8492
5.08964
5.33132
5.57416
5.81808
6.063
6.30885
6.55553
6.80298
7.05113
7.29988
7.54917
7.79893
8.04909
8.29956
8.55029
8.8012
9.05224
9.30332
9.55439
9.80538
10.0562
10.3069
10.5573
10.8074
11.0571
11.3064
11.5552
11.8035
12.0513
12.2984
12.5448
12.7905
13.0355
13.2797
13.523
13.7655
14.007
14.2476
14.4872
14.7258
14.9633
15.1998
15.4352
15.6694
15.9024
16.1343
16.3649
16.5944
16.8225
17.0494
17.275
17.4993
17.7222
17.9438
18.1641
18.3829
18.6004
18.8165
19.0311
19.2444
19.4562
19.6665
19.8755
20.0829
20.2889
20.4934
20.6965
20.898
21.0981
21.2967
21.4938
21.6895
21.8836
22.0762
22.2674
22.457
22.6452
22.8319
23.017
23.2007
23.3829
23.5637
23.7429
23.9206
24.0969
24.2717
24.4451
24.617
24.7874
24.9564
25.1239
25.2899
25.4546
25.6178
25.7795
25.9399
26.0988
26.2563
26.4124
26.5672
26.7205
26.8724
27.023
27.1721
27.32
27.4664
27.6115
27.7552
27.8977
28.0387
28.1785
28.3169
28.454
28.5898
28.7243
28.8575
28.9894
29.12
29.2494
29.3774
29.5043
29.6298
29.7541
29.8772
29.999
30.1196
30.2389
30.357
30.474
30.5897
30.7042
30.8175
30.9296
31.0405
31.1502
31.2588
31.3661
31.4723
31.5774
31.6813
31.784
31.8855
31.986
32.0853
32.1834
32.2804
32.3763
32.471
32.5647
32.6572
32.7486
32.8388
32.928
33.0161
33.103
33.1889
33.2737
33.3574
33.4399
33.5214
33.6019
33.6812
33.7595
33.8366
33.9127
33.9878
34.0617
34.1346
34.2065
34.2772
34.3469
34.4156
34.4832
34.5497
34.6152
34.6796
34.743
34.8053
34.8666
34.9268
34.986
35.0441
35.1012
35.1572
35.2122
35.2661
35.319
35.3709
35.4217
35.4715
35.5203
35.568
35.6146
35.6603
35.7048
35.7484
35.7909
35.8324
35.8728
35.9122
35.9506
35.9879
36.0242
36.0595
36.0937
36.1269
36.1591
36.1902
36.2202
36.2493
36.2773
36.3043
36.3302
36.3551
36.379
36.4018
36.4236
36.4443
36.464
36.4827
36.5004
36.517
36.5325
36.5471
36.5605
36.573
36.5844
36.5948
36.6041
36.6124
36.6197
36.6259
36.6311
36.6353
36.6384
36.6405
36.6415
-5.55697
-5.55435
-5.54905
-5.54114
-5.53055
-5.51733
-5.50142
-5.48283
-5.46154
-5.43752
-5.41075
-5.3812
-5.34882
-5.3136
-5.2755
-5.23448
-5.1905
-5.14353
-5.09352
-5.04045
-4.98428
-4.92496
-4.86246
-4.79675
-4.7278
-4.65558
-4.58006
-4.50121
-4.41902
-4.33346
-4.24451
-4.15216
-4.05639
-3.95719
-3.85454
-3.74844
-3.63887
-3.52582
-3.40929
-3.28927
-3.16576
-3.03875
-2.90824
-2.77425
-2.63675
-2.49578
-2.35132
-2.20341
-2.05204
-1.89724
-1.73903
-1.57743
-1.41248
-1.2442
-1.07263
-0.897804
-0.719766
-0.53856
-0.354233
-0.166835
0.0235796
0.216956
0.413235
0.612355
0.814255
1.01887
1.22612
1.43596
1.64829
1.86306
2.08019
2.2996
2.52121
2.74495
2.97074
3.19849
3.42813
3.65958
3.89276
4.12757
4.36395
4.60181
4.84107
5.08165
5.32346
5.56643
5.81047
6.05551
6.30147
6.54826
6.79581
7.04405
7.2929
7.54228
7.79212
8.04235
8.2929
8.5437
8.79467
9.04576
9.2969
9.54801
9.79905
10.0499
10.3006
10.5511
10.8012
11.0509
11.3003
11.5491
11.7974
12.0451
12.2922
12.5387
12.7844
13.0293
13.2735
13.5168
13.7592
14.0008
14.2413
14.4809
14.7195
14.957
15.1934
15.4287
15.6629
15.8959
16.1277
16.3583
16.5876
16.8157
17.0426
17.2681
17.4923
17.7152
17.9367
18.1569
18.3756
18.593
18.809
19.0236
19.2367
19.4485
19.6587
19.8676
20.0749
20.2808
20.4852
20.6882
20.8897
21.0897
21.2882
21.4852
21.6807
21.8747
22.0673
22.2583
22.4479
22.6359
22.8225
23.0076
23.1911
23.3732
23.5539
23.733
23.9106
24.0868
24.2615
24.4348
24.6065
24.7768
24.9457
25.1131
25.2791
25.4436
25.6067
25.7683
25.9286
26.0874
26.2448
26.4008
26.5554
26.7086
26.8605
27.0109
27.16
27.3077
27.454
27.599
27.7426
27.885
28.0259
28.1656
28.3039
28.4409
28.5766
28.711
28.844
28.9759
29.1064
29.2356
29.3636
29.4903
29.6158
29.74
29.8629
29.9847
30.1051
30.2244
30.3424
30.4593
30.5749
30.6893
30.8025
30.9145
31.0253
31.135
31.2434
31.3507
31.4568
31.5618
31.6656
31.7682
31.8697
31.97
32.0692
32.1673
32.2642
32.36
32.4547
32.5482
32.6406
32.732
32.8222
32.9113
32.9992
33.0861
33.1719
33.2566
33.3402
33.4227
33.5042
33.5845
33.6638
33.742
33.8191
33.8951
33.9701
34.044
34.1168
34.1886
34.2593
34.329
34.3975
34.4651
34.5315
34.597
34.6613
34.7246
34.7869
34.8481
34.9083
34.9674
35.0255
35.0825
35.1385
35.1934
35.2473
35.3002
35.352
35.4028
35.4525
35.5012
35.5489
35.5955
35.6411
35.6856
35.7292
35.7716
35.8131
35.8535
35.8929
35.9312
35.9685
36.0047
36.04
36.0742
36.1073
36.1394
36.1705
36.2006
36.2296
36.2576
36.2845
36.3104
36.3353
36.3592
36.382
36.4037
36.4245
36.4442
36.4628
36.4804
36.497
36.5126
36.5271
36.5406
36.553
36.5644
36.5748
36.5841
36.5924
36.5997
36.6059
36.6111
36.6152
36.6183
36.6204
36.6215
-5.55375
-5.55125
-5.5462
-5.53865
-5.52855
-5.51592
-5.50071
-5.48293
-5.46253
-5.43948
-5.41375
-5.38529
-5.35407
-5.32003
-5.28313
-5.24332
-5.20054
-5.15477
-5.10593
-5.05399
-4.99889
-4.9406
-4.87906
-4.81423
-4.74609
-4.67459
-4.59971
-4.52141
-4.43968
-4.3545
-4.26584
-4.17371
-4.07807
-3.97893
-3.87628
-3.77012
-3.66044
-3.54723
-3.43051
-3.31026
-3.1865
-3.05923
-2.92844
-2.79415
-2.65637
-2.51509
-2.37035
-2.22214
-2.07048
-1.91541
-1.75693
-1.59507
-1.42987
-1.26134
-1.08954
-0.914489
-0.736237
-0.554826
-0.370303
-0.18272
0.00787259
0.201417
0.397856
0.597128
0.79917
1.00392
1.2113
1.42125
1.6337
1.84857
2.06579
2.28528
2.50698
2.73078
2.95663
3.18444
3.41413
3.64562
3.87883
4.11368
4.35007
4.58795
4.82721
5.06778
5.30958
5.55253
5.79655
6.04156
6.28748
6.53422
6.78173
7.02991
7.27869
7.528
7.77776
8.02791
8.27836
8.52906
8.77994
9.03091
9.28193
9.53293
9.78384
10.0346
10.2852
10.5355
10.7854
11.035
11.2842
11.5328
11.781
12.0285
12.2755
12.5217
12.7673
13.012
13.256
13.4991
13.7413
13.9826
14.223
14.4624
14.7007
14.938
15.1742
15.4092
15.6432
15.876
16.1075
16.3379
16.567
16.7949
17.0215
17.2467
17.4707
17.6933
17.9146
18.1345
18.3531
18.5702
18.7859
19.0002
19.2131
19.4246
19.6346
19.8432
20.0503
20.2559
20.4601
20.6627
20.864
21.0637
21.2619
21.4587
21.6539
21.8477
22.04
22.2307
22.42
22.6078
22.7941
22.9789
23.1623
23.3441
23.5244
23.7033
23.8807
24.0566
24.2311
24.404
24.5755
24.7456
24.9142
25.0813
25.2471
25.4113
25.5742
25.7356
25.8956
26.0541
26.2113
26.3671
26.5214
26.6744
26.826
26.9762
27.125
27.2725
27.4186
27.5633
27.7067
27.8488
27.9895
28.1289
28.267
28.4038
28.5393
28.6734
28.8063
28.9379
29.0682
29.1972
29.325
29.4515
29.5767
29.7007
29.8235
29.945
30.0653
30.1843
30.3022
30.4188
30.5342
30.6484
30.7614
30.8732
30.9839
31.0933
31.2016
31.3087
31.4146
31.5194
31.623
31.7254
31.8268
31.9269
32.0259
32.1238
32.2206
32.3162
32.4107
32.5041
32.5964
32.6875
32.7776
32.8665
32.9543
33.0411
33.1267
33.2113
33.2947
33.3771
33.4584
33.5386
33.6177
33.6958
33.7727
33.8486
33.9235
33.9972
34.0699
34.1416
34.2122
34.2817
34.3501
34.4175
34.4839
34.5492
34.6135
34.6767
34.7388
34.7999
34.86
34.919
34.9769
35.0339
35.0898
35.1446
35.1984
35.2512
35.3029
35.3536
35.4032
35.4518
35.4994
35.546
35.5915
35.6359
35.6794
35.7218
35.7631
35.8035
35.8428
35.881
35.9183
35.9545
35.9896
36.0238
36.0568
36.0889
36.1199
36.1499
36.1789
36.2068
36.2337
36.2596
36.2844
36.3082
36.331
36.3527
36.3734
36.3931
36.4117
36.4293
36.4459
36.4614
36.4759
36.4893
36.5017
36.5131
36.5235
36.5328
36.5411
36.5483
36.5545
36.5597
36.5638
36.567
36.569
36.5701
-5.57557
-5.57309
-5.56812
-5.56066
-5.5507
-5.53823
-5.52322
-5.50566
-5.4855
-5.46273
-5.4373
-5.40917
-5.37829
-5.34461
-5.3081
-5.26869
-5.22634
-5.18098
-5.13258
-5.08106
-5.02639
-4.9685
-4.90736
-4.84291
-4.77511
-4.70392
-4.62931
-4.55124
-4.46969
-4.38463
-4.29604
-4.20391
-4.10823
-4.00899
-3.90618
-3.7998
-3.68986
-3.57635
-3.45928
-3.33865
-3.21447
-3.08675
-2.95551
-2.82074
-2.68247
-2.5407
-2.39546
-2.24675
-2.0946
-1.93903
-1.78006
-1.61772
-1.45204
-1.28305
-1.11079
-0.93529
-0.756595
-0.574749
-0.389799
-0.201796
-0.0107929
0.183155
0.37999
0.57965
0.782073
0.987193
1.19494
1.40525
1.61805
1.83327
2.05082
2.27065
2.49266
2.71679
2.94295
3.17106
3.40104
3.63282
3.8663
4.10142
4.33808
4.57621
4.81572
5.05654
5.29858
5.54175
5.78599
6.03121
6.27733
6.52428
6.77197
7.02033
7.26929
7.51877
7.76869
8.01899
8.26959
8.52043
8.77144
9.02254
9.27368
9.52478
9.7758
10.0267
10.2773
10.5277
10.7777
11.0274
11.2766
11.5253
11.7735
12.0211
12.2681
12.5144
12.7599
13.0047
13.2487
13.4918
13.734
13.9753
14.2157
14.455
14.6934
14.9306
15.1668
15.4018
15.6357
15.8685
16.1
16.3303
16.5594
16.7872
17.0137
17.2389
17.4628
17.6854
17.9066
18.1264
18.3448
18.5619
18.7775
18.9918
19.2045
19.4159
19.6258
19.8343
20.0413
20.2468
20.4508
20.6534
20.8545
21.0541
21.2523
21.4489
21.644
21.8377
22.0298
22.2205
22.4096
22.5973
22.7835
22.9681
23.1513
23.333
23.5132
23.692
23.8692
24.045
24.2193
24.3922
24.5635
24.7335
24.9019
25.0689
25.2345
25.3986
25.5613
25.7226
25.8825
26.0409
26.1979
26.3535
26.5077
26.6606
26.812
26.9621
27.1108
27.2581
27.4041
27.5487
27.692
27.8339
27.9745
28.1138
28.2517
28.3884
28.5237
28.6577
28.7905
28.9219
29.0521
29.181
29.3086
29.435
29.5601
29.684
29.8066
29.928
30.0481
30.1671
30.2848
30.4013
30.5166
30.6306
30.7435
30.8552
30.9657
31.0751
31.1832
31.2902
31.396
31.5007
31.6042
31.7065
31.8077
31.9078
32.0067
32.1044
32.2011
32.2966
32.391
32.4843
32.5764
32.6675
32.7574
32.8463
32.934
33.0206
33.1062
33.1906
33.274
33.3563
33.4375
33.5176
33.5966
33.6746
33.7515
33.8273
33.902
33.9757
34.0483
34.1199
34.1904
34.2598
34.3282
34.3955
34.4618
34.527
34.5912
34.6543
34.7164
34.7774
34.8374
34.8964
34.9543
35.0111
35.0669
35.1217
35.1755
35.2282
35.2798
35.3305
35.38
35.4286
35.4761
35.5226
35.5681
35.6125
35.6559
35.6982
35.7395
35.7798
35.8191
35.8573
35.8945
35.9306
35.9657
35.9998
36.0329
36.0649
36.0959
36.1259
36.1548
36.1827
36.2096
36.2354
36.2602
36.284
36.3067
36.3284
36.3491
36.3687
36.3873
36.4049
36.4214
36.4369
36.4514
36.4648
36.4772
36.4886
36.4989
36.5083
36.5165
36.5238
36.53
36.5351
36.5393
36.5424
36.5444
36.5455
-5.5833
-5.58091
-5.57614
-5.56897
-5.55938
-5.54737
-5.53291
-5.51598
-5.49652
-5.47452
-5.44992
-5.42268
-5.39274
-5.36005
-5.32456
-5.28619
-5.2449
-5.20062
-5.15328
-5.10283
-5.0492
-4.99234
-4.93218
-4.86867
-4.80176
-4.7314
-4.65756
-4.58018
-4.49925
-4.41473
-4.3266
-4.23484
-4.13944
-4.04039
-3.93769
-3.83134
-3.72135
-3.60772
-3.49046
-3.36958
-3.24511
-3.11705
-2.98542
-2.85024
-2.71154
-2.56931
-2.4236
-2.27442
-2.12179
-1.96574
-1.8063
-1.64349
-1.47735
-1.3079
-1.13519
-0.959253
-0.78013
-0.597866
-0.412508
-0.224107
-0.0327164
0.161609
0.358811
0.558829
0.7616
0.967058
1.17514
1.38577
1.59887
1.81439
2.03224
2.25234
2.47463
2.69902
2.92543
3.15379
3.384
3.61601
3.84971
4.08503
4.32189
4.56021
4.79991
5.04089
5.28309
5.52642
5.7708
6.01616
6.26241
6.50947
6.75727
7.00573
7.25478
7.50433
7.75433
8.00469
8.25535
8.50624
8.75728
9.00841
9.25957
9.51069
9.76171
10.0126
10.2632
10.5136
10.7636
11.0132
11.2624
11.5111
11.7592
12.0067
12.2536
12.4998
12.7453
12.99
13.2339
13.4769
13.719
13.9602
14.2005
14.4397
14.6779
14.915
15.151
15.3859
15.6197
15.8522
16.0836
16.3138
16.5427
16.7703
16.9966
17.2217
17.4454
17.6677
17.8888
18.1084
18.3266
18.5435
18.7589
18.973
19.1855
19.3967
19.6064
19.8146
20.0214
20.2267
20.4305
20.6329
20.8338
21.0332
21.2311
21.4275
21.6224
21.8158
22.0077
22.1981
22.387
22.5745
22.7604
22.9449
23.1278
23.3093
23.4893
23.6678
23.8448
24.0203
24.1944
24.367
24.5381
24.7078
24.876
25.0428
25.2081
25.372
25.5345
25.6955
25.8552
26.0134
26.1701
26.3255
26.4795
26.6321
26.7833
26.9332
27.0816
27.2287
27.3745
27.5189
27.6619
27.8036
27.944
28.0831
28.2208
28.3572
28.4923
28.6262
28.7587
28.8899
29.0199
29.1486
29.276
29.4022
29.5271
29.6507
29.7731
29.8943
30.0143
30.133
30.2505
30.3668
30.4819
30.5958
30.7085
30.82
30.9303
31.0395
31.1475
31.2543
31.3599
31.4644
31.5677
31.6698
31.7709
31.8707
31.9695
32.0671
32.1636
32.2589
32.3532
32.4463
32.5383
32.6292
32.7189
32.8076
32.8952
32.9817
33.0671
33.1514
33.2346
33.3167
33.3978
33.4778
33.5566
33.6345
33.7112
33.7869
33.8615
33.9351
34.0076
34.079
34.1494
34.2187
34.2869
34.3541
34.4203
34.4854
34.5495
34.6125
34.6744
34.7354
34.7952
34.8541
34.9119
34.9686
35.0244
35.079
35.1327
35.1853
35.2369
35.2874
35.3369
35.3854
35.4328
35.4792
35.5246
35.5689
35.6122
35.6545
35.6957
35.7359
35.7751
35.8133
35.8504
35.8865
35.9215
35.9556
35.9886
36.0205
36.0515
36.0814
36.1102
36.1381
36.1649
36.1907
36.2154
36.2392
36.2619
36.2835
36.3042
36.3238
36.3423
36.3599
36.3764
36.3919
36.4063
36.4197
36.4321
36.4435
36.4538
36.4631
36.4713
36.4785
36.4847
36.4899
36.494
36.4971
36.4992
36.5002
-5.60709
-5.60473
-5.60003
-5.59297
-5.58354
-5.57172
-5.55748
-5.5408
-5.52165
-5.49997
-5.47573
-5.44889
-5.41938
-5.38716
-5.35216
-5.31433
-5.2736
-5.2299
-5.18318
-5.13335
-5.08036
-5.02414
-4.96463
-4.90176
-4.83548
-4.76573
-4.69246
-4.61563
-4.53519
-4.45111
-4.36337
-4.27193
-4.17678
-4.0779
-3.9753
-3.86897
-3.75892
-3.64515
-3.52768
-3.40653
-3.28171
-3.15325
-3.02116
-2.88549
-2.74624
-2.60345
-2.45714
-2.30734
-2.15409
-1.99741
-1.83733
-1.67388
-1.5071
-1.33702
-1.16368
-0.987122
-0.807386
-0.624519
-0.438567
-0.249581
-0.057614
0.137278
0.335037
0.535602
0.738911
0.944898
1.1535
1.36463
1.57824
1.79425
2.01258
2.23316
2.45591
2.68075
2.90761
3.1364
3.36705
3.59947
3.83358
4.0693
4.30655
4.54525
4.78531
5.02666
5.26921
5.51288
5.75759
6.00327
6.24983
6.49719
6.74528
6.99402
7.24334
7.49316
7.74341
7.99402
8.24491
8.49601
8.74727
8.99861
9.24996
9.50126
9.75246
10.0035
10.2543
10.5048
10.7549
11.0047
11.254
11.5028
11.751
11.9987
12.2456
12.4919
12.7375
12.9822
13.2262
13.4692
13.7114
13.9526
14.1929
14.4321
14.6703
14.9074
15.1435
15.3784
15.6121
15.8447
16.076
16.3061
16.535
16.7626
16.9889
17.2138
17.4375
17.6598
17.8807
18.1003
18.3185
18.5352
18.7506
18.9645
19.177
19.388
19.5976
19.8058
20.0124
20.2176
20.4214
20.6236
20.8244
21.0236
21.2214
21.4177
21.6124
21.8057
21.9975
22.1878
22.3766
22.5638
22.7496
22.9339
23.1167
23.2981
23.4779
23.6562
23.8331
24.0085
24.1824
24.3549
24.5258
24.6954
24.8634
25.0301
25.1952
25.359
25.5213
25.6822
25.8416
25.9996
26.1563
26.3115
26.4653
26.6178
26.7688
26.9185
27.0668
27.2137
27.3593
27.5036
27.6464
27.788
27.9282
28.0671
28.2047
28.3409
28.4759
28.6096
28.7419
28.873
29.0028
29.1313
29.2586
29.3846
29.5094
29.6329
29.7552
29.8762
29.996
30.1146
30.2319
30.3481
30.463
30.5768
30.6893
30.8007
30.9109
31.0199
31.1277
31.2344
31.3399
31.4442
31.5474
31.6494
31.7503
31.8501
31.9487
32.0461
32.1425
32.2377
32.3318
32.4248
32.5167
32.6075
32.6971
32.7857
32.8731
32.9595
33.0448
33.129
33.2121
33.2941
33.375
33.4549
33.5337
33.6114
33.688
33.7636
33.8381
33.9116
33.9839
34.0553
34.1255
34.1948
34.2629
34.33
34.3961
34.4611
34.5251
34.588
34.6499
34.7107
34.7705
34.8293
34.887
34.9437
34.9993
35.0539
35.1075
35.16
35.2115
35.262
35.3114
35.3598
35.4072
35.4535
35.4988
35.5431
35.5863
35.6285
35.6697
35.7099
35.749
35.7871
35.8241
35.8602
35.8952
35.9292
35.9621
35.994
36.0249
36.0548
36.0836
36.1114
36.1382
36.164
36.1887
36.2124
36.235
36.2567
36.2773
36.2968
36.3154
36.3329
36.3494
36.3648
36.3793
36.3927
36.405
36.4164
36.4267
36.4359
36.4442
36.4514
36.4576
36.4627
36.4668
36.4699
36.472
36.473
-5.62123
-5.61895
-5.61441
-5.60757
-5.59844
-5.587
-5.5732
-5.55704
-5.53845
-5.51742
-5.49388
-5.46779
-5.43909
-5.40772
-5.37362
-5.33672
-5.29696
-5.25426
-5.20856
-5.15977
-5.10783
-5.05266
-4.99419
-4.93236
-4.86709
-4.79833
-4.72601
-4.65008
-4.5705
-4.48721
-4.40019
-4.3094
-4.21482
-4.11642
-4.01421
-3.90817
-3.79832
-3.68465
-3.56719
-3.44596
-3.32097
-3.19226
-3.05985
-2.92378
-2.78409
-2.6408
-2.49395
-2.34359
-2.18973
-2.03243
-1.87172
-1.70763
-1.54021
-1.36949
-1.19551
-1.01831
-0.83795
-0.654464
-0.467902
-0.278317
-0.0857613
0.109709
0.308035
0.509156
0.71301
0.919531
1.12865
1.3403
1.55441
1.77091
1.98972
2.21077
2.43398
2.65926
2.88656
3.11577
3.34683
3.57965
3.81416
4.05026
4.28788
4.52693
4.76734
5.00903
5.2519
5.49589
5.7409
5.98687
6.2337
6.48134
6.72969
6.97867
7.22823
7.47827
7.72873
7.97954
8.23062
8.48191
8.73333
8.98483
9.23633
9.48777
9.73909
9.99023
10.2411
10.4917
10.742
10.9918
11.2412
11.49
11.7383
11.986
12.233
12.4793
12.7248
12.9696
13.2135
13.4566
13.6987
13.9399
14.1801
14.4193
14.6575
14.8945
15.1305
15.3653
15.599
15.8314
16.0627
16.2927
16.5215
16.7489
16.9751
17.2
17.4235
17.6456
17.8664
18.0859
18.3039
18.5205
18.7357
18.9495
19.1618
19.3727
19.5821
19.79
19.9965
20.2015
20.4051
20.6071
20.8077
21.0067
21.2043
21.4004
21.595
21.788
21.9796
22.1697
22.3583
22.5453
22.7309
22.915
23.0976
23.2787
23.4583
23.6364
23.8131
23.9883
24.162
24.3342
24.5049
24.6742
24.8421
25.0085
25.1734
25.337
25.499
25.6597
25.8189
25.9767
26.1331
26.2881
26.4417
26.594
26.7448
26.8942
27.0423
27.189
27.3344
27.4784
27.6211
27.7624
27.9024
28.0411
28.1784
28.3145
28.4492
28.5827
28.7148
28.8457
28.9753
29.1036
29.2307
29.3565
29.481
29.6044
29.7264
29.8472
29.9669
30.0852
30.2024
30.3184
30.4331
30.5467
30.659
30.7702
30.8802
30.989
31.0967
31.2031
31.3084
31.4126
31.5156
31.6175
31.7182
31.8177
31.9162
32.0135
32.1097
32.2047
32.2987
32.3915
32.4832
32.5738
32.6633
32.7517
32.839
32.9252
33.0103
33.0944
33.1773
33.2592
33.34
33.4197
33.4983
33.5759
33.6524
33.7279
33.8022
33.8755
33.9478
34.019
34.0891
34.1582
34.2263
34.2933
34.3592
34.4241
34.488
34.5508
34.6125
34.6733
34.7329
34.7916
34.8492
34.9058
34.9613
35.0158
35.0693
35.1217
35.1731
35.2235
35.2728
35.3211
35.3684
35.4147
35.4599
35.5041
35.5472
35.5894
35.6305
35.6705
35.7096
35.7476
35.7846
35.8206
35.8555
35.8894
35.9223
35.9542
35.985
36.0148
36.0436
36.0714
36.0981
36.1238
36.1485
36.1721
36.1947
36.2163
36.2369
36.2564
36.2749
36.2924
36.3089
36.3243
36.3387
36.3521
36.3644
36.3757
36.386
36.3953
36.4035
36.4107
36.4169
36.422
36.4261
36.4292
36.4313
36.4323
-5.64553
-5.64328
-5.63882
-5.6321
-5.62313
-5.61188
-5.59832
-5.58242
-5.56415
-5.54346
-5.52032
-5.49466
-5.46643
-5.43557
-5.40203
-5.36573
-5.3266
-5.28458
-5.23958
-5.19154
-5.14037
-5.086
-5.02835
-4.96735
-4.90293
-4.83502
-4.76354
-4.68844
-4.60966
-4.52715
-4.44086
-4.35074
-4.25677
-4.15893
-4.05718
-3.95153
-3.84197
-3.7285
-3.61114
-3.48991
-3.36483
-3.23593
-3.10324
-2.96681
-2.82668
-2.68288
-2.53546
-2.38447
-2.22995
-2.07195
-1.91051
-1.74567
-1.57748
-1.40599
-1.23123
-1.05326
-0.872127
-0.687871
-0.500548
-0.310209
-0.116909
0.0792957
0.278346
0.480181
0.684737
0.89195
1.10175
1.31407
1.52884
1.74599
1.96543
2.18711
2.41093
2.63682
2.8647
3.0945
3.32613
3.55951
3.79456
4.03119
4.26933
4.5089
4.74981
4.99198
5.23533
5.47977
5.72524
5.97164
6.21891
6.46695
6.7157
6.96508
7.21501
7.46542
7.71624
7.96738
8.21879
8.4704
8.72213
8.97391
9.2257
9.47741
9.72898
9.98037
10.2315
10.4823
10.7328
10.9828
11.2324
11.4814
11.7298
11.9777
12.2248
12.4713
12.7169
12.9618
13.2058
13.449
13.6912
13.9325
14.1728
14.412
14.6502
14.8873
15.1233
15.3582
15.5918
15.8243
16.0556
16.2856
16.5143
16.7418
16.9679
17.1927
17.4162
17.6383
17.8591
18.0784
18.2964
18.5129
18.728
18.9417
19.154
19.3647
19.5741
19.7819
19.9883
20.1932
20.3966
20.5986
20.799
20.9979
21.1954
21.3913
21.5858
21.7787
21.9701
22.1601
22.3485
22.5354
22.7209
22.9048
23.0872
23.2682
23.4476
23.6256
23.8021
23.9771
24.1506
24.3227
24.4932
24.6624
24.8301
24.9963
25.1611
25.3244
25.4863
25.6468
25.8058
25.9635
26.1197
26.2745
26.4279
26.58
26.7306
26.8799
27.0278
27.1743
27.3195
27.4634
27.6058
27.747
27.8868
28.0253
28.1625
28.2984
28.4329
28.5662
28.6982
28.8289
28.9583
29.0865
29.2133
29.339
29.4633
29.5865
29.7084
29.829
29.9485
30.0667
30.1837
30.2995
30.4141
30.5275
30.6397
30.7507
30.8605
30.9691
31.0766
31.1829
31.2881
31.3921
31.495
31.5967
31.6972
31.7966
31.8949
31.9921
32.0881
32.183
32.2768
32.3695
32.4611
32.5515
32.6409
32.7292
32.8163
32.9024
32.9874
33.0713
33.1541
33.2359
33.3165
33.3961
33.4746
33.5521
33.6285
33.7038
33.778
33.8512
33.9234
33.9945
34.0645
34.1335
34.2014
34.2683
34.3341
34.3989
34.4627
34.5254
34.587
34.6477
34.7073
34.7658
34.8233
34.8798
34.9352
34.9897
35.043
35.0954
35.1467
35.197
35.2463
35.2945
35.3417
35.3879
35.433
35.4771
35.5202
35.5623
35.6033
35.6433
35.6823
35.7203
35.7572
35.7931
35.828
35.8619
35.8947
35.9265
35.9573
35.9871
36.0158
36.0435
36.0702
36.0958
36.1205
36.1441
36.1667
36.1882
36.2088
36.2283
36.2467
36.2642
36.2806
36.296
36.3104
36.3237
36.3361
36.3474
36.3576
36.3669
36.3751
36.3823
36.3884
36.3936
36.3977
36.4008
36.4028
36.4038
-5.66313
-5.66095
-5.65661
-5.65008
-5.64136
-5.63041
-5.61722
-5.60175
-5.58396
-5.56382
-5.54126
-5.51625
-5.48872
-5.45861
-5.42586
-5.3904
-5.35216
-5.31106
-5.26702
-5.21997
-5.16982
-5.11649
-5.05991
-5
-4.93667
-4.86985
-4.79946
-4.72544
-4.64772
-4.56624
-4.48093
-4.39176
-4.29868
-4.20166
-4.10065
-3.99566
-3.88666
-3.77367
-3.65667
-3.53569
-3.41076
-3.28189
-3.14913
-3.01253
-2.87212
-2.72795
-2.58009
-2.42858
-2.27347
-2.11482
-1.95269
-1.78713
-1.61818
-1.44592
-1.27037
-1.09161
-0.90967
-0.724617
-0.536499
-0.345373
-0.151293
0.0456812
0.245491