/*--------------------------------*- C++ -*----------------------------------*\
| =========                 |                                                 |
| \\      /  F ield         | OpenFOAM: The Open Source CFD Toolbox           |
|  \\    /   O peration     | Version:  2212                                  |
|   \\  /    A nd           | Website:  www.openfoam.com                      |
|    \\/     M anipulation  |                                                 |
\*---------------------------------------------------------------------------*/
FoamFile
{
    version     2.0;
    format      ascii;
    arch        "LSB;label=32;scalar=64";
    class       volScalarField;
    location    "810";
    object      p_rgh;
}
// * * * * * * * * * * * * * * * * * * * * * * * * * * * * * * * * * * * * * //

dimensions      [1 -1 -2 0 0 0 0];

internalField   nonuniform List<scalar> 
204800
(
49.8747
49.8694
49.8646
49.8591
49.8514
49.8415
49.8291
49.8144
49.7973
49.7779
49.7561
49.7322
49.7061
49.678
49.6478
49.6157
49.5817
49.5457
49.5079
49.4682
49.4267
49.3834
49.3383
49.2914
49.2428
49.1924
49.1402
49.0864
49.0309
48.9737
48.9149
48.8546
48.7927
48.7293
48.6643
48.598
48.5302
48.461
48.3904
48.3185
48.2453
48.1708
48.095
48.018
47.9399
47.8606
47.7802
47.6987
47.6161
47.5326
47.4481
47.3626
47.2762
47.189
47.1009
47.012
46.9223
46.8319
46.7409
46.6491
46.5568
46.4639
46.3704
46.2764
46.182
46.0871
45.9918
45.8961
45.8001
45.7038
45.6073
45.5106
45.4136
45.3165
45.2193
45.122
45.0247
44.9274
44.83
44.7328
44.6356
44.5386
44.4417
44.345
44.2485
44.1522
44.0563
43.9607
43.8654
43.7704
43.6759
43.5818
43.4882
43.3951
43.3025
43.2104
43.1189
43.0279
42.9376
42.848
42.759
42.6707
42.5832
42.4963
42.4102
42.325
42.2405
42.1568
42.074
41.992
41.9109
41.8307
41.7515
41.6731
41.5957
41.5193
41.4439
41.3694
41.2959
41.2235
41.1521
41.0817
41.0124
40.9442
40.877
40.8109
40.7459
40.682
40.6192
40.5575
40.497
40.4376
40.3793
40.3221
40.2661
40.2112
40.1575
40.1049
40.0535
40.0033
39.9542
39.9062
39.8594
39.8138
39.7693
39.726
39.6838
39.6428
39.6029
39.5642
39.5266
39.4901
39.4548
39.4206
39.3875
39.3555
39.3247
39.2949
39.2662
39.2387
39.2122
39.1867
39.1624
39.1391
39.1168
39.0956
39.0754
39.0562
39.0381
39.0209
39.0047
38.9895
38.9753
38.962
38.9497
38.9383
38.9278
38.9183
38.9096
38.9018
38.8949
38.8889
38.8837
38.8793
38.8757
38.873
38.871
38.8699
38.8695
38.8698
38.8709
38.8728
38.8753
38.8785
38.8825
38.8871
38.8923
38.8982
38.9047
38.9119
38.9196
38.9279
38.9368
38.9463
38.9563
38.9668
38.9779
38.9894
39.0014
39.0139
39.0269
39.0403
39.0541
39.0684
39.0831
39.0981
39.1135
39.1293
39.1454
39.1619
39.1786
39.1957
39.2131
39.2307
39.2487
39.2668
39.2852
39.3039
39.3227
39.3417
39.361
39.3804
39.3999
39.4197
39.4395
39.4595
39.4796
39.4997
39.52
39.5404
39.5608
39.5812
39.6017
39.6223
39.6428
39.6634
39.6839
39.7045
39.725
39.7455
39.7659
39.7863
39.8066
39.8269
39.847
39.8671
39.887
39.9069
39.9266
39.9462
39.9656
39.9849
40.004
40.023
40.0418
40.0604
40.0788
40.097
40.115
40.1328
40.1503
40.1677
40.1848
40.2016
40.2182
40.2345
40.2506
40.2664
40.2819
40.2971
40.312
40.3267
40.341
40.355
40.3687
40.3821
40.3952
40.4079
40.4203
40.4324
40.4441
40.4555
40.4665
40.4771
40.4874
40.4974
40.5069
40.5161
40.5249
40.5334
40.5414
40.5491
40.5564
40.5633
40.5698
40.5759
40.5816
40.5869
40.5918
40.5963
40.6004
40.6041
40.6074
40.6103
40.6128
40.6148
40.6165
40.6177
40.6185
40.6189
49.7906
49.7871
49.7815
49.7737
49.7636
49.7513
49.737
49.7207
49.7023
49.682
49.6597
49.6353
49.609
49.5808
49.5505
49.5184
49.4843
49.4484
49.4106
49.371
49.3296
49.2863
49.2413
49.1944
49.1459
49.0955
49.0435
48.9897
48.9343
48.8772
48.8186
48.7583
48.6965
48.6332
48.5684
48.5021
48.4345
48.3654
48.2949
48.2231
48.15
48.0757
48.0001
47.9232
47.8452
47.7661
47.6858
47.6044
47.5221
47.4387
47.3543
47.2689
47.1827
47.0956
47.0077
46.919
46.8295
46.7393
46.6483
46.5568
46.4646
46.3718
46.2785
46.1847
46.0904
45.9957
45.9006
45.8051
45.7093
45.6132
45.5168
45.4202
45.3235
45.2266
45.1295
45.0324
44.9353
44.8381
44.741
44.6439
44.5469
44.45
44.3533
44.2568
44.1605
44.0644
43.9686
43.8732
43.778
43.6833
43.5889
43.495
43.4016
43.3086
43.2162
43.1242
43.0329
42.9422
42.852
42.7625
42.6737
42.5856
42.4982
42.4115
42.3256
42.2405
42.1561
42.0726
41.9899
41.9081
41.8272
41.7472
41.668
41.5898
41.5126
41.4363
41.361
41.2867
41.2134
41.1411
41.0698
40.9996
40.9304
40.8623
40.7952
40.7292
40.6644
40.6006
40.5379
40.4764
40.4159
40.3566
40.2984
40.2414
40.1855
40.1307
40.0771
40.0246
39.9733
39.9232
39.8741
39.8263
39.7796
39.7341
39.6897
39.6464
39.6043
39.5634
39.5236
39.4849
39.4474
39.411
39.3758
39.3416
39.3086
39.2767
39.2459
39.2162
39.1876
39.16
39.1336
39.1082
39.0839
39.0607
39.0384
39.0173
38.9971
38.978
38.9599
38.9427
38.9266
38.9114
38.8972
38.884
38.8717
38.8603
38.8499
38.8403
38.8317
38.8239
38.817
38.811
38.8058
38.8014
38.7979
38.7952
38.7932
38.7921
38.7917
38.7921
38.7932
38.795
38.7975
38.8008
38.8047
38.8093
38.8145
38.8204
38.8269
38.8341
38.8418
38.8501
38.859
38.8684
38.8784
38.8889
38.9
38.9115
38.9235
38.936
38.9489
38.9623
38.9761
38.9904
39.005
39.02
39.0354
39.0511
39.0672
39.0837
39.1004
39.1175
39.1348
39.1524
39.1703
39.1885
39.2068
39.2254
39.2442
39.2633
39.2824
39.3018
39.3213
39.341
39.3608
39.3808
39.4008
39.421
39.4412
39.4615
39.4819
39.5023
39.5228
39.5433
39.5638
39.5843
39.6049
39.6254
39.6459
39.6663
39.6867
39.7071
39.7273
39.7475
39.7677
39.7877
39.8076
39.8274
39.8471
39.8666
39.886
39.9053
39.9244
39.9433
39.9621
39.9806
39.999
40.0172
40.0352
40.0529
40.0704
40.0877
40.1048
40.1216
40.1381
40.1544
40.1705
40.1862
40.2017
40.2169
40.2318
40.2464
40.2607
40.2747
40.2884
40.3018
40.3148
40.3275
40.3399
40.352
40.3636
40.375
40.386
40.3966
40.4069
40.4168
40.4264
40.4356
40.4444
40.4528
40.4608
40.4685
40.4757
40.4826
40.4891
40.4952
40.5009
40.5062
40.5111
40.5156
40.5197
40.5234
40.5267
40.5296
40.532
40.5341
40.5357
40.537
40.5378
40.5382
49.772
49.7693
49.7639
49.7562
49.746
49.7338
49.7195
49.7032
49.6848
49.6645
49.6421
49.6178
49.5914
49.5631
49.5329
49.5007
49.4666
49.4306
49.3928
49.3532
49.3117
49.2685
49.2234
49.1765
49.1279
49.0776
49.0255
48.9717
48.9163
48.8592
48.8006
48.7403
48.6785
48.6152
48.5504
48.4841
48.4164
48.3473
48.2769
48.2051
48.132
48.0576
47.982
47.9052
47.8272
47.748
47.6677
47.5864
47.504
47.4206
47.3362
47.2509
47.1647
47.0776
46.9896
46.9009
46.8114
46.7212
46.6303
46.5387
46.4465
46.3538
46.2605
46.1667
46.0724
45.9777
45.8825
45.7871
45.6912
45.5951
45.4988
45.4022
45.3055
45.2085
45.1115
45.0144
44.9173
44.8201
44.723
44.6259
44.5289
44.432
44.3353
44.2388
44.1425
44.0464
43.9507
43.8552
43.7601
43.6654
43.571
43.4771
43.3837
43.2907
43.1983
43.1064
43.015
42.9243
42.8342
42.7447
42.6559
42.5678
42.4804
42.3937
42.3078
42.2227
42.1384
42.0549
41.9722
41.8904
41.8095
41.7295
41.6504
41.5722
41.4949
41.4187
41.3434
41.2691
41.1958
41.1235
41.0522
40.982
40.9128
40.8447
40.7777
40.7117
40.6469
40.5831
40.5205
40.4589
40.3985
40.3392
40.281
40.224
40.1681
40.1134
40.0598
40.0073
39.956
39.9059
39.8569
39.8091
39.7624
39.7168
39.6725
39.6292
39.5872
39.5462
39.5065
39.4678
39.4303
39.3939
39.3587
39.3246
39.2916
39.2597
39.2289
39.1992
39.1706
39.1431
39.1167
39.0913
39.067
39.0438
39.0216
39.0004
38.9803
38.9611
38.943
38.9259
38.9098
38.8947
38.8805
38.8672
38.855
38.8436
38.8332
38.8236
38.815
38.8073
38.8004
38.7944
38.7892
38.7848
38.7813
38.7786
38.7767
38.7755
38.7751
38.7755
38.7766
38.7785
38.781
38.7843
38.7882
38.7928
38.798
38.8039
38.8105
38.8176
38.8254
38.8337
38.8426
38.852
38.862
38.8725
38.8836
38.8951
38.9071
38.9196
38.9326
38.946
38.9598
38.974
38.9887
39.0037
39.0191
39.0349
39.051
39.0674
39.0842
39.1012
39.1186
39.1362
39.1541
39.1722
39.1906
39.2092
39.228
39.247
39.2662
39.2856
39.3051
39.3248
39.3446
39.3646
39.3846
39.4048
39.425
39.4454
39.4657
39.4862
39.5066
39.5271
39.5477
39.5682
39.5887
39.6092
39.6297
39.6502
39.6706
39.6909
39.7112
39.7314
39.7515
39.7716
39.7915
39.8113
39.831
39.8505
39.8699
39.8892
39.9083
39.9272
39.946
39.9645
39.9829
40.0011
40.019
40.0368
40.0543
40.0716
40.0887
40.1055
40.122
40.1383
40.1544
40.1701
40.1856
40.2008
40.2157
40.2303
40.2446
40.2586
40.2723
40.2857
40.2987
40.3114
40.3238
40.3358
40.3475
40.3589
40.3699
40.3805
40.3908
40.4007
40.4103
40.4194
40.4282
40.4367
40.4447
40.4524
40.4596
40.4665
40.473
40.4791
40.4848
40.4901
40.495
40.4995
40.5036
40.5073
40.5106
40.5135
40.5159
40.518
40.5196
40.5209
40.5217
40.5221
49.6991
49.6962
49.6901
49.6815
49.6703
49.657
49.6417
49.6245
49.6054
49.5844
49.5615
49.5368
49.5102
49.4817
49.4512
49.4189
49.3848
49.3488
49.3109
49.2713
49.2298
49.1865
49.1415
49.0947
49.0461
48.9958
48.9437
48.89
48.8346
48.7776
48.7189
48.6587
48.597
48.5338
48.469
48.4028
48.3352
48.2662
48.1958
48.1241
48.0511
47.9768
47.9012
47.8245
47.7465
47.6675
47.5873
47.506
47.4237
47.3404
47.2561
47.1709
47.0848
46.9978
46.9099
46.8213
46.7319
46.6418
46.551
46.4596
46.3675
46.2748
46.1816
46.0879
45.9938
45.8991
45.8041
45.7088
45.6131
45.5171
45.4208
45.3244
45.2277
45.1309
45.034
44.937
44.84
44.743
44.6459
44.549
44.4521
44.3554
44.2588
44.1624
44.0662
43.9703
43.8746
43.7793
43.6843
43.5897
43.4954
43.4016
43.3083
43.2155
43.1232
43.0314
42.9402
42.8495
42.7595
42.6702
42.5815
42.4935
42.4062
42.3196
42.2338
42.1488
42.0646
41.9812
41.8987
41.817
41.7362
41.6563
41.5773
41.4992
41.4221
41.3459
41.2707
41.1965
41.1233
41.0511
40.98
40.9098
40.8408
40.7728
40.7058
40.64
40.5752
40.5115
40.449
40.3875
40.3272
40.268
40.2099
40.1529
40.0971
40.0425
39.989
39.9366
39.8854
39.8353
39.7864
39.7386
39.692
39.6466
39.6023
39.5591
39.5171
39.4762
39.4365
39.3979
39.3605
39.3242
39.289
39.2549
39.222
39.1902
39.1594
39.1298
39.1013
39.0738
39.0474
39.0221
38.9979
38.9747
38.9525
38.9314
38.9113
38.8922
38.8742
38.8571
38.841
38.8259
38.8117
38.7986
38.7863
38.775
38.7646
38.7551
38.7465
38.7387
38.7319
38.7259
38.7207
38.7164
38.7129
38.7102
38.7083
38.7072
38.7068
38.7072
38.7083
38.7102
38.7128
38.716
38.72
38.7246
38.7298
38.7357
38.7423
38.7494
38.7572
38.7655
38.7744
38.7838
38.7938
38.8044
38.8154
38.8269
38.8389
38.8514
38.8644
38.8778
38.8916
38.9058
38.9205
38.9355
38.9509
38.9666
38.9827
38.9991
39.0159
39.0329
39.0503
39.0679
39.0858
39.1039
39.1222
39.1408
39.1596
39.1786
39.1978
39.2172
39.2367
39.2564
39.2762
39.2961
39.3161
39.3363
39.3565
39.3768
39.3971
39.4176
39.438
39.4585
39.479
39.4995
39.52
39.5405
39.561
39.5814
39.6018
39.6221
39.6424
39.6626
39.6827
39.7027
39.7226
39.7424
39.762
39.7815
39.8009
39.8202
39.8392
39.8582
39.8769
39.8954
39.9138
39.932
39.9499
39.9676
39.9851
40.0024
40.0194
40.0362
40.0528
40.0691
40.0851
40.1008
40.1163
40.1315
40.1464
40.1609
40.1752
40.1892
40.2029
40.2162
40.2293
40.242
40.2543
40.2664
40.278
40.2894
40.3004
40.311
40.3212
40.3312
40.3407
40.3499
40.3586
40.3671
40.3751
40.3827
40.39
40.3969
40.4034
40.4094
40.4151
40.4204
40.4253
40.4298
40.4339
40.4376
40.4409
40.4437
40.4462
40.4483
40.4499
40.4511
40.452
40.4524
49.6702
49.6673
49.6613
49.6528
49.6418
49.6287
49.6134
49.5963
49.5772
49.5563
49.5334
49.5086
49.4819
49.4533
49.4228
49.3905
49.3562
49.3202
49.2823
49.2426
49.2011
49.1578
49.1127
49.0658
49.0172
48.9668
48.9147
48.861
48.8056
48.7485
48.6899
48.6296
48.5679
48.5046
48.4398
48.3736
48.306
48.2369
48.1665
48.0948
48.0218
47.9475
47.8719
47.7951
47.7172
47.6381
47.5579
47.4766
47.3943
47.311
47.2267
47.1415
47.0553
46.9683
46.8805
46.7918
46.7024
46.6123
46.5215
46.43
46.3379
46.2453
46.1521
46.0584
45.9642
45.8696
45.7745
45.6792
45.5835
45.4875
45.3912
45.2948
45.1981
45.1013
45.0044
44.9074
44.8104
44.7133
44.6163
44.5193
44.4225
44.3257
44.2291
44.1327
44.0365
43.9406
43.845
43.7496
43.6546
43.56
43.4658
43.372
43.2787
43.1859
43.0935
43.0018
42.9105
42.8199
42.7299
42.6406
42.5519
42.4639
42.3766
42.2901
42.2043
42.1193
42.0351
41.9517
41.8692
41.7875
41.7067
41.6268
41.5478
41.4698
41.3927
41.3165
41.2413
41.1672
41.094
41.0218
40.9507
40.8806
40.8115
40.7435
40.6766
40.6108
40.546
40.4824
40.4198
40.3584
40.2981
40.2389
40.1808
40.1239
40.0681
40.0135
39.96
39.9077
39.8565
39.8064
39.7575
39.7098
39.6632
39.6178
39.5735
39.5304
39.4884
39.4476
39.4079
39.3693
39.3319
39.2956
39.2605
39.2264
39.1935
39.1617
39.131
39.1014
39.0729
39.0454
39.0191
38.9938
38.9696
38.9464
38.9243
38.9032
38.8831
38.8641
38.846
38.829
38.8129
38.7978
38.7837
38.7706
38.7583
38.747
38.7367
38.7272
38.7186
38.7109
38.7041
38.6981
38.693
38.6887
38.6852
38.6825
38.6806
38.6795
38.6792
38.6796
38.6808
38.6826
38.6852
38.6885
38.6925
38.6971
38.7024
38.7083
38.7149
38.722
38.7298
38.7381
38.747
38.7565
38.7665
38.7771
38.7881
38.7997
38.8117
38.8242
38.8372
38.8506
38.8644
38.8787
38.8933
38.9084
38.9238
38.9395
38.9556
38.9721
38.9888
39.0059
39.0233
39.0409
39.0588
39.0769
39.0953
39.1139
39.1327
39.1517
39.1709
39.1903
39.2098
39.2295
39.2493
39.2692
39.2893
39.3094
39.3297
39.35
39.3703
39.3908
39.4112
39.4317
39.4522
39.4728
39.4933
39.5138
39.5342
39.5547
39.5751
39.5954
39.6157
39.6359
39.656
39.676
39.6959
39.7157
39.7354
39.7549
39.7743
39.7935
39.8126
39.8315
39.8503
39.8688
39.8872
39.9053
39.9233
39.941
39.9585
39.9758
39.9928
40.0096
40.0262
40.0425
40.0585
40.0742
40.0897
40.1049
40.1198
40.1344
40.1487
40.1626
40.1763
40.1897
40.2027
40.2154
40.2278
40.2398
40.2515
40.2628
40.2738
40.2844
40.2947
40.3046
40.3141
40.3233
40.3321
40.3405
40.3485
40.3562
40.3635
40.3703
40.3768
40.3829
40.3886
40.3939
40.3988
40.4033
40.4074
40.411
40.4143
40.4172
40.4197
40.4217
40.4234
40.4246
40.4254
40.4258
49.6037
49.6007
49.5945
49.5857
49.5743
49.5607
49.545
49.5275
49.5079
49.4866
49.4633
49.4382
49.4113
49.3825
49.3518
49.3193
49.285
49.2489
49.2109
49.1711
49.1296
49.0862
49.0411
48.9942
48.9456
48.8952
48.8431
48.7893
48.7339
48.6769
48.6182
48.558
48.4963
48.433
48.3683
48.3021
48.2345
48.1655
48.0951
48.0234
47.9504
47.8761
47.8006
47.7239
47.646
47.5669
47.4868
47.4055
47.3233
47.24
47.1557
47.0705
46.9845
46.8975
46.8097
46.7211
46.6318
46.5417
46.4509
46.3595
46.2675
46.1749
46.0817
45.9881
45.894
45.7994
45.7045
45.6091
45.5135
45.4176
45.3214
45.225
45.1284
45.0317
44.9348
44.8379
44.7409
44.6439
44.547
44.4501
44.3533
44.2566
44.1601
44.0638
43.9676
43.8718
43.7762
43.6809
43.586
43.4915
43.3973
43.3036
43.2104
43.1176
43.0254
42.9337
42.8425
42.752
42.6621
42.5728
42.4842
42.3963
42.3091
42.2226
42.1369
42.052
41.9678
41.8845
41.8021
41.7205
41.6398
41.5599
41.481
41.403
41.326
41.2499
41.1748
41.1007
41.0276
40.9555
40.8844
40.8144
40.7454
40.6775
40.6107
40.5449
40.4802
40.4166
40.3542
40.2928
40.2326
40.1735
40.1155
40.0586
40.0029
39.9483
39.8949
39.8426
39.7915
39.7415
39.6927
39.645
39.5985
39.5531
39.5089
39.4659
39.4239
39.3832
39.3435
39.305
39.2677
39.2314
39.1963
39.1624
39.1295
39.0977
39.0671
39.0375
39.0091
38.9817
38.9554
38.9302
38.906
38.8829
38.8608
38.8398
38.8197
38.8007
38.7827
38.7657
38.7497
38.7347
38.7206
38.7075
38.6953
38.684
38.6737
38.6642
38.6557
38.648
38.6412
38.6353
38.6302
38.6259
38.6225
38.6198
38.618
38.6169
38.6166
38.617
38.6182
38.6201
38.6227
38.626
38.63
38.6347
38.64
38.6459
38.6525
38.6597
38.6675
38.6758
38.6848
38.6942
38.7043
38.7148
38.7259
38.7375
38.7495
38.762
38.775
38.7884
38.8023
38.8165
38.8312
38.8462
38.8616
38.8774
38.8935
38.91
38.9267
38.9438
38.9612
38.9788
38.9967
39.0148
39.0332
39.0518
39.0706
39.0896
39.1088
39.1282
39.1477
39.1674
39.1872
39.2072
39.2272
39.2473
39.2676
39.2879
39.3082
39.3287
39.3491
39.3696
39.3901
39.4106
39.4311
39.4516
39.4721
39.4925
39.5129
39.5332
39.5535
39.5737
39.5938
39.6138
39.6337
39.6535
39.6731
39.6927
39.712
39.7313
39.7504
39.7693
39.788
39.8065
39.8249
39.843
39.861
39.8787
39.8962
39.9135
39.9305
39.9473
39.9638
39.9801
39.9961
40.0119
40.0273
40.0425
40.0574
40.072
40.0862
40.1002
40.1139
40.1272
40.1403
40.1529
40.1653
40.1773
40.189
40.2003
40.2113
40.2219
40.2322
40.2421
40.2516
40.2608
40.2696
40.278
40.286
40.2937
40.3009
40.3078
40.3143
40.3204
40.326
40.3313
40.3362
40.3407
40.3448
40.3485
40.3518
40.3546
40.3571
40.3592
40.3608
40.362
40.3629
40.3633
49.5675
49.5646
49.5585
49.5499
49.5387
49.5253
49.5098
49.4923
49.4728
49.4514
49.4281
49.403
49.376
49.3471
49.3164
49.2839
49.2495
49.2132
49.1752
49.1354
49.0937
49.0503
49.0051
48.9582
48.9095
48.859
48.8069
48.7531
48.6976
48.6405
48.5819
48.5216
48.4598
48.3965
48.3317
48.2655
48.1979
48.1288
48.0584
47.9867
47.9136
47.8393
47.7638
47.687
47.6091
47.53
47.4498
47.3685
47.2862
47.2029
47.1186
47.0334
46.9473
46.8603
46.7725
46.6839
46.5945
46.5044
46.4136
46.3222
46.2301
46.1375
46.0443
45.9506
45.8565
45.7619
45.6669
45.5716
45.4759
45.38
45.2838
45.1873
45.0907
44.994
44.8971
44.8002
44.7032
44.6062
44.5092
44.4123
44.3155
44.2188
44.1222
44.0259
43.9298
43.8339
43.7383
43.643
43.5481
43.4536
43.3594
43.2657
43.1724
43.0797
42.9874
42.8957
42.8046
42.714
42.6241
42.5348
42.4462
42.3583
42.2711
42.1846
42.0989
42.014
41.9299
41.8466
41.7642
41.6826
41.6018
41.522
41.4431
41.3652
41.2881
41.2121
41.137
41.0629
40.9898
40.9177
40.8467
40.7766
40.7077
40.6398
40.573
40.5072
40.4426
40.379
40.3165
40.2552
40.195
40.1359
40.0779
40.0211
39.9654
39.9109
39.8575
39.8052
39.7541
39.7042
39.6554
39.6077
39.5613
39.5159
39.4717
39.4287
39.3868
39.3461
39.3065
39.268
39.2307
39.1945
39.1594
39.1255
39.0926
39.0609
39.0303
39.0008
38.9724
38.945
38.9187
38.8936
38.8694
38.8463
38.8243
38.8033
38.7833
38.7643
38.7464
38.7294
38.7134
38.6984
38.6844
38.6713
38.6591
38.6479
38.6376
38.6282
38.6197
38.6121
38.6053
38.5994
38.5943
38.5901
38.5867
38.5841
38.5823
38.5812
38.5809
38.5814
38.5826
38.5845
38.5872
38.5905
38.5945
38.5992
38.6046
38.6106
38.6172
38.6244
38.6322
38.6406
38.6495
38.6591
38.6691
38.6797
38.6908
38.7024
38.7145
38.727
38.74
38.7535
38.7673
38.7816
38.7963
38.8114
38.8268
38.8426
38.8588
38.8752
38.892
38.9091
38.9265
38.9441
38.9621
38.9802
38.9986
39.0172
39.0361
39.0551
39.0743
39.0937
39.1133
39.133
39.1528
39.1727
39.1928
39.213
39.2332
39.2535
39.2739
39.2943
39.3148
39.3353
39.3558
39.3764
39.3969
39.4174
39.4379
39.4583
39.4787
39.4991
39.5193
39.5395
39.5597
39.5797
39.5996
39.6194
39.639
39.6586
39.678
39.6972
39.7163
39.7352
39.754
39.7725
39.7909
39.809
39.827
39.8447
39.8622
39.8795
39.8965
39.9133
39.9299
39.9462
39.9622
39.9779
39.9934
40.0086
40.0235
40.038
40.0523
40.0663
40.08
40.0933
40.1064
40.1191
40.1314
40.1434
40.1551
40.1665
40.1774
40.1881
40.1983
40.2082
40.2178
40.2269
40.2357
40.2441
40.2522
40.2598
40.2671
40.274
40.2804
40.2865
40.2922
40.2975
40.3024
40.3069
40.311
40.3147
40.3179
40.3208
40.3233
40.3253
40.327
40.3282
40.329
40.3294
49.506
49.5031
49.497
49.4883
49.477
49.4635
49.4477
49.43
49.4103
49.3887
49.3652
49.3398
49.3126
49.2836
49.2527
49.22
49.1855
49.1492
49.111
49.0711
49.0294
48.9859
48.9407
48.8937
48.8449
48.7944
48.7423
48.6884
48.6329
48.5758
48.5171
48.4568
48.395
48.3317
48.2669
48.2007
48.133
48.0639
47.9935
47.9218
47.8487
47.7744
47.6989
47.6221
47.5442
47.4651
47.3849
47.3036
47.2213
47.138
47.0537
46.9685
46.8824
46.7954
46.7076
46.619
46.5296
46.4395
46.3488
46.2573
46.1653
46.0727
45.9795
45.8858
45.7917
45.6971
45.6022
45.5068
45.4112
45.3153
45.2191
45.1227
45.0261
44.9294
44.8325
44.7356
44.6386
44.5417
44.4447
44.3478
44.251
44.1544
44.0579
43.9615
43.8654
43.7696
43.674
43.5788
43.4839
43.3894
43.2953
43.2016
43.1084
43.0156
42.9234
42.8317
42.7406
42.6501
42.5603
42.471
42.3825
42.2946
42.2074
42.121
42.0353
41.9505
41.8664
41.7831
41.7007
41.6192
41.5385
41.4588
41.3799
41.302
41.225
41.149
41.0739
40.9999
40.9268
40.8548
40.7838
40.7139
40.645
40.5771
40.5103
40.4446
40.38
40.3165
40.2541
40.1929
40.1327
40.0737
40.0157
39.959
39.9033
39.8488
39.7955
39.7433
39.6923
39.6424
39.5936
39.5461
39.4996
39.4543
39.4102
39.3672
39.3254
39.2847
39.2452
39.2068
39.1695
39.1333
39.0983
39.0644
39.0317
39
38.9694
38.94
38.9116
38.8843
38.8581
38.8329
38.8089
38.7858
38.7638
38.7429
38.7229
38.704
38.6861
38.6692
38.6533
38.6383
38.6243
38.6113
38.5992
38.588
38.5777
38.5684
38.5599
38.5523
38.5456
38.5397
38.5347
38.5305
38.5272
38.5246
38.5228
38.5218
38.5216
38.5221
38.5233
38.5253
38.528
38.5313
38.5354
38.5401
38.5455
38.5515
38.5581
38.5654
38.5732
38.5817
38.5907
38.6002
38.6103
38.6209
38.632
38.6437
38.6558
38.6683
38.6814
38.6948
38.7087
38.723
38.7377
38.7528
38.7683
38.7841
38.8003
38.8168
38.8336
38.8507
38.8681
38.8858
38.9037
38.9219
38.9403
38.9589
38.9778
38.9968
39.0161
39.0355
39.055
39.0747
39.0946
39.1145
39.1346
39.1548
39.175
39.1954
39.2158
39.2362
39.2567
39.2772
39.2977
39.3183
39.3388
39.3593
39.3798
39.4002
39.4206
39.441
39.4613
39.4815
39.5016
39.5216
39.5415
39.5613
39.581
39.6005
39.6199
39.6392
39.6583
39.6772
39.6959
39.7145
39.7329
39.751
39.769
39.7867
39.8042
39.8215
39.8385
39.8553
39.8719
39.8882
39.9042
39.9199
39.9354
39.9506
39.9654
39.98
39.9943
40.0083
40.022
40.0353
40.0484
40.061
40.0734
40.0854
40.0971
40.1084
40.1194
40.1301
40.1403
40.1502
40.1598
40.1689
40.1777
40.1861
40.1942
40.2018
40.2091
40.2159
40.2224
40.2285
40.2342
40.2395
40.2444
40.2489
40.253
40.2566
40.2599
40.2628
40.2653
40.2673
40.2689
40.2702
40.271
40.2714
49.4654
49.4625
49.4565
49.448
49.4369
49.4235
49.4079
49.3902
49.3705
49.349
49.3255
49.3001
49.2728
49.2437
49.2128
49.18
49.1454
49.109
49.0708
49.0308
48.989
48.9455
48.9001
48.853
48.8042
48.7537
48.7014
48.6475
48.5919
48.5347
48.476
48.4156
48.3538
48.2904
48.2255
48.1592
48.0915
48.0224
47.9519
47.8801
47.807
47.7327
47.657
47.5802
47.5022
47.4231
47.3429
47.2615
47.1792
47.0958
47.0115
46.9262
46.84
46.753
46.6651
46.5765
46.487
46.3969
46.3061
46.2146
46.1225
46.0298
45.9366
45.8429
45.7487
45.6541
45.5591
45.4637
45.368
45.2721
45.1758
45.0794
44.9828
44.886
44.7891
44.6921
44.5951
44.4981
44.4011
44.3042
44.2074
44.1107
44.0141
43.9178
43.8217
43.7258
43.6302
43.5349
43.44
43.3455
43.2513
43.1576
43.0644
42.9716
42.8794
42.7877
42.6966
42.6061
42.5162
42.4269
42.3383
42.2505
42.1633
42.0769
41.9912
41.9063
41.8222
41.739
41.6566
41.575
41.4944
41.4146
41.3357
41.2578
41.1808
41.1048
41.0298
40.9558
40.8827
40.8107
40.7397
40.6698
40.6009
40.533
40.4663
40.4006
40.336
40.2725
40.2102
40.1489
40.0888
40.0297
39.9719
39.9151
39.8595
39.805
39.7517
39.6996
39.6485
39.5987
39.55
39.5024
39.456
39.4108
39.3667
39.3237
39.2819
39.2413
39.2018
39.1634
39.1262
39.0901
39.0551
39.0212
38.9885
38.9569
38.9264
38.8969
38.8686
38.8414
38.8152
38.7901
38.766
38.7431
38.7211
38.7002
38.6803
38.6614
38.6436
38.6267
38.6108
38.5959
38.5819
38.5689
38.5569
38.5457
38.5355
38.5262
38.5178
38.5103
38.5036
38.4978
38.4928
38.4887
38.4853
38.4828
38.4811
38.4801
38.4799
38.4805
38.4818
38.4838
38.4865
38.4899
38.494
38.4988
38.5042
38.5103
38.5169
38.5242
38.5321
38.5406
38.5496
38.5592
38.5693
38.58
38.5912
38.6028
38.615
38.6276
38.6406
38.6542
38.6681
38.6824
38.6972
38.7123
38.7278
38.7436
38.7598
38.7764
38.7932
38.8104
38.8278
38.8455
38.8635
38.8817
38.9001
38.9188
38.9377
38.9567
38.976
38.9954
39.015
39.0348
39.0546
39.0746
39.0947
39.1149
39.1352
39.1556
39.176
39.1964
39.217
39.2375
39.258
39.2786
39.2991
39.3197
39.3402
39.3607
39.3811
39.4015
39.4218
39.442
39.4621
39.4822
39.5021
39.5219
39.5416
39.5612
39.5806
39.5998
39.6189
39.6379
39.6566
39.6752
39.6936
39.7117
39.7297
39.7475
39.765
39.7823
39.7993
39.8161
39.8327
39.849
39.865
39.8808
39.8962
39.9114
39.9263
39.9409
39.9552
39.9692
39.9829
39.9962
40.0093
40.022
40.0344
40.0464
40.0581
40.0694
40.0804
40.091
40.1013
40.1112
40.1207
40.1299
40.1387
40.1471
40.1552
40.1628
40.1701
40.177
40.1834
40.1895
40.1952
40.2005
40.2054
40.2099
40.214
40.2177
40.221
40.2238
40.2263
40.2284
40.23
40.2312
40.2321
40.2325
49.4077
49.4048
49.3989
49.3904
49.3793
49.3658
49.3502
49.3324
49.3126
49.2909
49.2673
49.2418
49.2144
49.1852
49.1541
49.1212
49.0865
49.05
49.0117
48.9716
48.9297
48.8861
48.8406
48.7934
48.7445
48.6939
48.6416
48.5876
48.532
48.4747
48.4159
48.3555
48.2936
48.2302
48.1653
48.0989
48.0312
47.962
47.8915
47.8196
47.7465
47.6721
47.5964
47.5196
47.4415
47.3624
47.2821
47.2007
47.1183
47.0349
46.9506
46.8653
46.7791
46.692
46.6041
46.5154
46.4259
46.3358
46.2449
46.1534
46.0613
45.9686
45.8753
45.7816
45.6874
45.5927
45.4977
45.4023
45.3066
45.2106
45.1143
45.0179
44.9212
44.8244
44.7275
44.6306
44.5335
44.4365
44.3395
44.2426
44.1457
44.049
43.9525
43.8561
43.76
43.6641
43.5685
43.4732
43.3783
43.2838
43.1896
43.0959
43.0027
42.9099
42.8177
42.726
42.6349
42.5444
42.4545
42.3653
42.2767
42.1888
42.1017
42.0152
41.9296
41.8447
41.7607
41.6774
41.595
41.5135
41.4329
41.3531
41.2743
41.1964
41.1194
41.0435
40.9685
40.8944
40.8214
40.7495
40.6785
40.6086
40.5397
40.4719
40.4052
40.3396
40.275
40.2116
40.1492
40.088
40.0279
39.9689
39.9111
39.8544
39.7988
39.7444
39.6912
39.639
39.5881
39.5383
39.4896
39.4421
39.3957
39.3505
39.3065
39.2636
39.2219
39.1813
39.1418
39.1035
39.0663
39.0303
38.9953
38.9615
38.9289
38.8973
38.8668
38.8375
38.8092
38.782
38.7559
38.7308
38.7068
38.6839
38.662
38.6411
38.6213
38.6025
38.5847
38.5679
38.552
38.5372
38.5233
38.5103
38.4983
38.4873
38.4771
38.4678
38.4595
38.452
38.4454
38.4396
38.4347
38.4306
38.4273
38.4248
38.4232
38.4223
38.4221
38.4227
38.4241
38.4261
38.4289
38.4324
38.4365
38.4413
38.4468
38.4529
38.4596
38.4669
38.4749
38.4834
38.4925
38.5021
38.5123
38.523
38.5342
38.5459
38.5581
38.5707
38.5838
38.5974
38.6113
38.6257
38.6405
38.6557
38.6712
38.6871
38.7033
38.7199
38.7367
38.7539
38.7714
38.7891
38.8071
38.8254
38.8438
38.8625
38.8815
38.9006
38.9198
38.9393
38.9589
38.9787
38.9986
39.0186
39.0387
39.0589
39.0792
39.0996
39.1201
39.1406
39.1611
39.1816
39.2022
39.2228
39.2434
39.2639
39.2844
39.3049
39.3254
39.3458
39.3661
39.3863
39.4065
39.4265
39.4465
39.4663
39.486
39.5056
39.525
39.5443
39.5634
39.5823
39.6011
39.6197
39.6381
39.6563
39.6742
39.692
39.7095
39.7268
39.7439
39.7607
39.7773
39.7936
39.8096
39.8254
39.8409
39.8561
39.871
39.8856
39.8999
39.9139
39.9276
39.9409
39.954
39.9667
39.979
39.9911
40.0028
40.0141
40.0251
40.0357
40.046
40.0559
40.0655
40.0746
40.0834
40.0919
40.0999
40.1075
40.1148
40.1217
40.1282
40.1343
40.14
40.1453
40.1502
40.1547
40.1587
40.1624
40.1657
40.1686
40.1711
40.1731
40.1748
40.176
40.1768
40.1772
49.3643
49.3615
49.3557
49.3473
49.3363
49.323
49.3074
49.2898
49.27
49.2484
49.2247
49.1992
49.1717
49.1425
49.1113
49.0784
49.0436
49.007
48.9686
48.9284
48.8865
48.8427
48.7972
48.7499
48.7009
48.6502
48.5977
48.5437
48.488
48.4306
48.3717
48.3112
48.2492
48.1857
48.1208
48.0543
47.9865
47.9173
47.8467
47.7747
47.7015
47.627
47.5513
47.4743
47.3962
47.317
47.2366
47.1552
47.0727
46.9892
46.9048
46.8194
46.7331
46.646
46.558
46.4692
46.3797
46.2894
46.1985
46.1069
46.0147
45.9219
45.8286
45.7348
45.6405
45.5458
45.4507
45.3553
45.2595
45.1634
45.0671
44.9705
44.8738
44.777
44.68
44.583
44.4859
44.3888
44.2917
44.1947
44.0978
44.0011
43.9045
43.8081
43.7119
43.6159
43.5203
43.425
43.33
43.2354
43.1412
43.0475
42.9542
42.8614
42.7691
42.6774
42.5863
42.4957
42.4058
42.3165
42.2279
42.14
42.0528
41.9664
41.8807
41.7958
41.7118
41.6285
41.5461
41.4646
41.3839
41.3041
41.2253
41.1474
41.0704
40.9945
40.9194
40.8454
40.7724
40.7004
40.6295
40.5596
40.4907
40.4229
40.3562
40.2906
40.2261
40.1626
40.1003
40.0391
39.979
39.9201
39.8623
39.8056
39.75
39.6957
39.6424
39.5903
39.5394
39.4896
39.441
39.3935
39.3472
39.302
39.258
39.2152
39.1735
39.1329
39.0935
39.0552
39.0181
38.9821
38.9472
38.9134
38.8808
38.8493
38.8188
38.7895
38.7613
38.7342
38.7081
38.6831
38.6592
38.6363
38.6144
38.5936
38.5738
38.5551
38.5373
38.5206
38.5048
38.49
38.4761
38.4632
38.4513
38.4403
38.4302
38.421
38.4127
38.4052
38.3987
38.393
38.3881
38.3841
38.3808
38.3784
38.3768
38.376
38.3759
38.3765
38.3779
38.38
38.3829
38.3864
38.3906
38.3954
38.401
38.4071
38.4139
38.4213
38.4293
38.4378
38.447
38.4567
38.4669
38.4776
38.4889
38.5006
38.5129
38.5256
38.5387
38.5523
38.5663
38.5808
38.5956
38.6108
38.6264
38.6423
38.6586
38.6752
38.6921
38.7093
38.7269
38.7446
38.7627
38.781
38.7995
38.8182
38.8372
38.8563
38.8756
38.8951
38.9148
38.9346
38.9545
38.9746
38.9947
39.015
39.0353
39.0558
39.0762
39.0968
39.1173
39.1379
39.1585
39.1791
39.1997
39.2203
39.2409
39.2614
39.2819
39.3023
39.3226
39.3429
39.3631
39.3831
39.4031
39.423
39.4427
39.4623
39.4817
39.501
39.5202
39.5391
39.5579
39.5765
39.5949
39.6131
39.6311
39.6489
39.6665
39.6838
39.7009
39.7177
39.7343
39.7506
39.7666
39.7824
39.7979
39.8131
39.8281
39.8427
39.857
39.871
39.8847
39.8981
39.9111
39.9238
39.9362
39.9483
39.96
39.9713
39.9823
39.993
40.0033
40.0132
40.0227
40.0319
40.0407
40.0491
40.0572
40.0649
40.0721
40.079
40.0855
40.0916
40.0973
40.1026
40.1075
40.112
40.1161
40.1198
40.1231
40.1259
40.1284
40.1305
40.1321
40.1333
40.1342
40.1346
49.3095
49.3067
49.301
49.2926
49.2817
49.2684
49.2528
49.2351
49.2154
49.1936
49.1699
49.1443
49.1167
49.0874
49.0561
49.0231
48.9882
48.9515
48.913
48.8727
48.8306
48.7867
48.7411
48.6937
48.6446
48.5938
48.5413
48.4871
48.4313
48.3739
48.3149
48.2544
48.1923
48.1287
48.0637
47.9972
47.9292
47.8599
47.7893
47.7173
47.644
47.5694
47.4936
47.4166
47.3384
47.2591
47.1786
47.0971
47.0146
46.931
46.8465
46.761
46.6747
46.5875
46.4994
46.4106
46.321
46.2306
46.1396
46.048
45.9557
45.8629
45.7695
45.6756
45.5813
45.4865
45.3913
45.2958
45.2
45.1038
45.0075
44.9109
44.8141
44.7172
44.6202
44.5231
44.4259
44.3288
44.2317
44.1346
44.0377
43.9409
43.8442
43.7478
43.6515
43.5556
43.4599
43.3645
43.2695
43.1749
43.0807
42.9869
42.8936
42.8008
42.7085
42.6167
42.5255
42.435
42.345
42.2557
42.1671
42.0792
41.992
41.9056
41.8199
41.735
41.6509
41.5676
41.4852
41.4037
41.323
41.2433
41.1644
41.0865
41.0096
40.9336
40.8586
40.7846
40.7116
40.6397
40.5687
40.4988
40.43
40.3622
40.2955
40.2299
40.1654
40.102
40.0397
39.9786
39.9185
39.8596
39.8018
39.7451
39.6896
39.6353
39.5821
39.53
39.4791
39.4294
39.3808
39.3334
39.2871
39.242
39.198
39.1552
39.1136
39.0731
39.0337
38.9955
38.9584
38.9224
38.8876
38.8539
38.8213
38.7899
38.7595
38.7302
38.7021
38.675
38.649
38.624
38.6002
38.5773
38.5556
38.5348
38.5151
38.4964
38.4787
38.462
38.4463
38.4315
38.4178