/*--------------------------------*- C++ -*----------------------------------*\
| =========                 |                                                 |
| \\      /  F ield         | OpenFOAM: The Open Source CFD Toolbox           |
|  \\    /   O peration     | Version:  2212                                  |
|   \\  /    A nd           | Website:  www.openfoam.com                      |
|    \\/     M anipulation  |                                                 |
\*---------------------------------------------------------------------------*/
FoamFile
{
    version     2.0;
    format      ascii;
    arch        "LSB;label=32;scalar=64";
    class       volScalarField;
    location    "250";
    object      p_rgh;
}
// * * * * * * * * * * * * * * * * * * * * * * * * * * * * * * * * * * * * * //

dimensions      [1 -1 -2 0 0 0 0];

internalField   nonuniform List<scalar> 
204800
(
3.70032
3.69878
3.69516
3.68993
3.68286
3.67412
3.66366
3.65159
3.63792
3.62273
3.60609
3.5881
3.56885
3.54846
3.52706
3.5048
3.48183
3.45831
3.43443
3.41038
3.38633
3.3625
3.33907
3.31625
3.29424
3.27324
3.25344
3.23502
3.21817
3.20307
3.18988
3.17878
3.16991
3.16342
3.15944
3.15813
3.15959
3.16394
3.1713
3.18176
3.19543
3.21239
3.23273
3.25651
3.28382
3.31471
3.34924
3.38746
3.42942
3.47516
3.52471
3.5781
3.63535
3.69648
3.76151
3.83044
3.90328
3.98001
4.06065
4.14517
4.23355
4.32579
4.42184
4.52169
4.62531
4.73265
4.84367
4.95834
5.0766
5.1984
5.32371
5.45244
5.58456
5.72
5.8587
6.00058
6.1456
6.29367
6.44472
6.59869
6.7555
6.91508
7.07735
7.24223
7.40965
7.57953
7.75179
7.92635
8.10312
8.28204
8.46302
8.64598
8.83084
9.01752
9.20594
9.39603
9.58769
9.78087
9.97546
10.1714
10.3686
10.5671
10.7666
10.9672
11.1688
11.3712
11.5746
11.7786
11.9834
12.1888
12.3948
12.6013
12.8082
13.0154
13.223
13.4309
13.6389
13.8471
14.0554
14.2637
14.472
14.6802
14.8883
15.0962
15.3039
15.5113
15.7184
15.9252
16.1316
16.3375
16.543
16.7479
16.9523
17.1562
17.3594
17.5619
17.7638
17.965
18.1654
18.365
18.5639
18.7619
18.9591
19.1554
19.3508
19.5453
19.7388
19.9314
20.123
20.3136
20.5032
20.6918
20.8793
21.0657
21.2511
21.4354
21.6186
21.8007
21.9816
22.1614
22.34
22.5175
22.6939
22.869
23.043
23.2158
23.3874
23.5578
23.7269
23.8949
24.0617
24.2272
24.3915
24.5546
24.7164
24.8771
25.0364
25.1946
25.3515
25.5072
25.6616
25.8148
25.9667
26.1174
26.2669
26.4151
26.5621
26.7078
26.8523
26.9956
27.1376
27.2784
27.4179
27.5562
27.6933
27.8292
27.9638
28.0972
28.2294
28.3604
28.4901
28.6186
28.7459
28.8721
28.997
29.1207
29.2431
29.3644
29.4845
29.6035
29.7212
29.8377
29.9531
30.0672
30.1802
30.2921
30.4027
30.5122
30.6205
30.7277
30.8337
30.9385
31.0422
31.1448
31.2462
31.3465
31.4456
31.5436
31.6404
31.7362
31.8308
31.9243
32.0166
32.1079
32.198
32.287
32.3749
32.4617
32.5474
32.632
32.7154
32.7978
32.8791
32.9593
33.0384
33.1165
33.1934
33.2693
33.344
33.4177
33.4904
33.5619
33.6324
33.7018
33.7701
33.8373
33.9035
33.9687
34.0327
34.0958
34.1577
34.2186
34.2784
34.3372
34.3949
34.4516
34.5072
34.5618
34.6153
34.6678
34.7193
34.7696
34.819
34.8673
34.9146
34.9608
35.006
35.0501
35.0932
35.1353
35.1764
35.2164
35.2553
35.2933
35.3302
35.366
35.4009
35.4347
35.4675
35.4992
35.5299
35.5596
35.5883
35.6159
35.6426
35.6681
35.6927
35.7162
35.7387
35.7602
35.7807
35.8001
35.8185
35.8359
35.8522
35.8676
35.8819
35.8952
35.9074
35.9187
35.9289
35.9381
35.9463
35.9534
35.9596
35.9647
35.9688
35.9718
35.9739
35.9749
3.73214
3.72995
3.72567
3.7193
3.71083
3.70036
3.68791
3.67361
3.65755
3.63983
3.6206
3.59998
3.57814
3.55523
3.53142
3.50688
3.4818
3.45635
3.43072
3.40512
3.37972
3.35472
3.33031
3.30667
3.284
3.26246
3.24224
3.22351
3.20643
3.19117
3.17789
3.16672
3.15783
3.15135
3.1474
3.14612
3.14762
3.15203
3.15944
3.16995
3.18367
3.20067
3.22104
3.24485
3.27218
3.30308
3.33762
3.37584
3.41779
3.46351
3.51303
3.56639
3.6236
3.68469
3.74966
3.81852
3.89128
3.96794
4.04848
4.1329
4.22118
4.3133
4.40924
4.50896
4.61244
4.71963
4.8305
4.94501
5.06311
5.18474
5.30986
5.43842
5.57034
5.70558
5.84407
5.98574
6.13053
6.27838
6.4292
6.58293
6.7395
6.89883
7.06084
7.22546
7.39262
7.56222
7.7342
7.90848
8.08497
8.2636
8.44428
8.62694
8.8115
8.99787
9.18598
9.37575
9.56709
9.75994
9.95421
10.1498
10.3467
10.5448
10.744
10.9443
11.1455
11.3476
11.5506
11.7543
11.9587
12.1638
12.3694
12.5755
12.782
12.989
13.1962
13.4037
13.6114
13.8192
14.0271
14.235
14.4429
14.6507
14.8585
15.066
15.2733
15.4804
15.6871
15.8935
16.0995
16.3051
16.5102
16.7148
16.9188
17.1222
17.3251
17.5273
17.7288
17.9296
18.1296
18.3289
18.5274
18.725
18.9218
19.1178
19.3128
19.5069
19.7001
19.8923
20.0836
20.2738
20.4631
20.6513
20.8384
21.0245
21.2096
21.3935
21.5763
21.758
21.9386
22.1181
22.2964
22.4736
22.6496
22.8244
22.998
23.1705
23.3417
23.5118
23.6806
23.8483
24.0147
24.1799
24.3439
24.5067
24.6682
24.8285
24.9876
25.1455
25.3021
25.4574
25.6116
25.7644
25.9161
26.0665
26.2157
26.3636
26.5103
26.6557
26.7999
26.9429
27.0847
27.2252
27.3644
27.5025
27.6393
27.7749
27.9092
28.0424
28.1743
28.305
28.4345
28.5628
28.6898
28.8157
28.9404
29.0638
29.1861
29.3071
29.427
29.5457
29.6631
29.7795
29.8946
30.0085
30.1213
30.2329
30.3433
30.4526
30.5607
30.6677
30.7734
30.8781
30.9816
31.0839
31.1851
31.2852
31.3841
31.4819
31.5786
31.6741
31.7685
31.8618
31.954
32.0451
32.135
32.2238
32.3116
32.3982
32.4837
32.5681
32.6514
32.7337
32.8148
32.8948
32.9738
33.0516
33.1284
33.2041
33.2788
33.3523
33.4248
33.4962
33.5665
33.6358
33.7039
33.7711
33.8371
33.9021
33.9661
34.029
34.0908
34.1515
34.2113
34.2699
34.3275
34.3841
34.4396
34.4941
34.5475
34.5999
34.6512
34.7015
34.7507
34.7989
34.8461
34.8922
34.9373
34.9814
35.0244
35.0664
35.1074
35.1473
35.1862
35.224
35.2609
35.2967
35.3314
35.3652
35.3979
35.4296
35.4602
35.4899
35.5185
35.5461
35.5726
35.5982
35.6227
35.6461
35.6686
35.69
35.7105
35.7298
35.7482
35.7656
35.7819
35.7972
35.8115
35.8247
35.837
35.8482
35.8584
35.8676
35.8757
35.8829
35.889
35.8941
35.8982
35.9012
35.9033
35.9043
3.712
3.70989
3.70563
3.69932
3.69091
3.68052
3.66817
3.65398
3.63804
3.62047
3.60139
3.58095
3.5593
3.53659
3.51299
3.48867
3.46382
3.43861
3.41323
3.38788
3.36274
3.33799
3.31384
3.29046
3.26804
3.24676
3.22678
3.2083
3.19146
3.17644
3.16338
3.15244
3.14376
3.13749
3.13375
3.13267
3.13436
3.13896
3.14655
3.15724
3.17112
3.18829
3.20883
3.2328
3.26028
3.29134
3.32602
3.36439
3.40648
3.45234
3.502
3.55548
3.61283
3.67404
3.73913
3.80812
3.881
3.95777
4.03843
4.12297
4.21136
4.30359
4.39963
4.49946
4.60304
4.71034
4.82131
4.93592
5.05411
5.17584
5.30106
5.4297
5.56172
5.69704
5.83562
5.97738
6.12226
6.27018
6.42109
6.5749
6.73154
6.89094
7.05303
7.21772
7.38495
7.55462
7.72667
7.90101
8.07756
8.25625
8.43699
8.61971
8.80432
8.99074
9.1789
9.36872
9.56011
9.75301
9.94732
10.143
10.3399
10.538
10.7373
10.9375
11.1388
11.341
11.544
11.7477
11.9522
12.1572
12.3629
12.569
12.7755
12.9825
13.1897
13.3972
13.6049
13.8127
14.0206
14.2286
14.4365
14.6443
14.852
15.0596
15.2669
15.4739
15.6807
15.887
16.093
16.2986
16.5037
16.7082
16.9123
17.1157
17.3185
17.5207
17.7221
17.9229
18.1229
18.3222
18.5206
18.7183
18.9151
19.111
19.306
19.5001
19.6932
19.8854
20.0766
20.2668
20.456
20.6442
20.8313
21.0174
21.2024
21.3863
21.5691
21.7507
21.9313
22.1107
22.289
22.4661
22.642
22.8168
22.9904
23.1628
23.334
23.5041
23.6729
23.8405
24.0069
24.172
24.336
24.4987
24.6602
24.8205
24.9795
25.1373
25.2938
25.4492
25.6032
25.7561
25.9077
26.058
26.2072
26.355
26.5017
26.6471
26.7912
26.9342
27.0759
27.2163
27.3556
27.4935
27.6303
27.7659
27.9002
28.0333
28.1651
28.2958
28.4253
28.5535
28.6805
28.8063
28.9309
29.0543
29.1765
29.2976
29.4174
29.536
29.6535
29.7697
29.8848
29.9987
30.1114
30.223
30.3334
30.4426
30.5507
30.6576
30.7633
30.8679
30.9714
31.0737
31.1749
31.2749
31.3738
31.4715
31.5682
31.6637
31.758
31.8513
31.9434
32.0345
32.1244
32.2132
32.3009
32.3874
32.4729
32.5573
32.6406
32.7228
32.8039
32.8839
32.9628
33.0407
33.1174
33.1931
33.2677
33.3412
33.4136
33.485
33.5553
33.6245
33.6927
33.7598
33.8258
33.8908
33.9547
34.0176
34.0794
34.1401
34.1998
34.2584
34.316
34.3726
34.4281
34.4825
34.5359
34.5883
34.6396
34.6898
34.7391
34.7873
34.8344
34.8805
34.9256
34.9696
35.0126
35.0546
35.0956
35.1355
35.1743
35.2122
35.249
35.2848
35.3195
35.3533
35.386
35.4176
35.4483
35.4779
35.5065
35.5341
35.5606
35.5862
35.6106
35.6341
35.6566
35.678
35.6984
35.7178
35.7362
35.7535
35.7698
35.7851
35.7994
35.8126
35.8249
35.8361
35.8463
35.8555
35.8636
35.8708
35.8769
35.882
35.886
35.8891
35.8911
35.8922
3.70945
3.7071
3.70245
3.69552
3.68634
3.67501
3.66159
3.64621
3.62899
3.61007
3.58962
3.56779
3.54477
3.52073
3.49587
3.47037
3.44443
3.41824
3.39199
3.36588
3.3401
3.31483
3.29026
3.26656
3.24391
3.22249
3.20245
3.18396
3.16718
3.15225
3.13933
3.12856
3.12007
3.114
3.11048
3.10962
3.11155
3.11637
3.12419
3.1351
3.14921
3.16659
3.18733
3.2115
3.23917
3.27041
3.30526
3.34379
3.38604
3.43205
3.48185
3.53546
3.59293
3.65425
3.71946
3.78854
3.86152
3.93837
4.01911
4.10371
4.19217
4.28445
4.38055
4.48042
4.58403
4.69136
4.80235
4.91697
5.03518
5.15691
5.28212
5.41075
5.54275
5.67806
5.8166
5.95833
6.10316
6.25104
6.40189
6.55564
6.71222
6.87156
7.03357
7.19818
7.36532
7.5349
7.70685
7.88109
8.05754
8.23611
8.41674
8.59933
8.78381
8.97011
9.15813
9.3478
9.53905
9.73179
9.92595
10.1215
10.3182
10.5162
10.7152
10.9153
11.1164
11.3184
11.5212
11.7248
11.929
12.1339
12.3393
12.5452
12.7516
12.9583
13.1653
13.3726
13.5801
13.7877
13.9954
14.2031
14.4107
14.6183
14.8258
15.0331
15.2402
15.447
15.6535
15.8596
16.0654
16.2707
16.4755
16.6798
16.8836
17.0868
17.2893
17.4912
17.6924
17.893
18.0927
18.2917
18.4899
18.6873
18.8838
19.0794
19.2742
19.468
19.6609
19.8528
20.0438
20.2337
20.4226
20.6105
20.7974
20.9832
21.1679
21.3515
21.5341
21.7155
21.8958
22.0749
22.2529
22.4298
22.6055
22.78
22.9533
23.1255
23.2964
23.4662
23.6347
23.8021
23.9682
24.1331
24.2968
24.4593
24.6205
24.7805
24.9393
25.0969
25.2532
25.4082
25.5621
25.7147
25.866
26.0161
26.165
26.3127
26.4591
26.6042
26.7482
26.8908
27.0323
27.1725
27.3115
27.4493
27.5859
27.7212
27.8553
27.9881
28.1198
28.2502
28.3795
28.5075
28.6343
28.7599
28.8843
29.0075
29.1295
29.2503
29.3699
29.4883
29.6056
29.7216
29.8365
29.9502
30.0628
30.1741
30.2843
30.3934
30.5013
30.608
30.7135
30.818
30.9212
31.0234
31.1244
31.2242
31.3229
31.4205
31.517
31.6123
31.7065
31.7996
31.8916
31.9824
32.0722
32.1608
32.2484
32.3348
32.4201
32.5044
32.5875
32.6696
32.7505
32.8304
32.9092
32.9869
33.0635
33.139
33.2135
33.2869
33.3592
33.4304
33.5006
33.5697
33.6377
33.7047
33.7706
33.8355
33.8993
33.962
34.0237
34.0843
34.1439
34.2025
34.2599
34.3164
34.3718
34.4261
34.4794
34.5317
34.5829
34.6331
34.6822
34.7303
34.7774
34.8234
34.8684
34.9124
34.9553
34.9972
35.0381
35.0779
35.1167
35.1545
35.1912
35.2269
35.2616
35.2953
35.3279
35.3596
35.3902
35.4197
35.4483
35.4758
35.5023
35.5278
35.5522
35.5756
35.5981
35.6194
35.6398
35.6592
35.6775
35.6948
35.7111
35.7264
35.7406
35.7538
35.7661
35.7772
35.7874
35.7966
35.8047
35.8118
35.8179
35.823
35.8271
35.8302
35.8322
35.8332
3.67065
3.66836
3.66379
3.65698
3.64797
3.63683
3.62365
3.60854
3.59162
3.57303
3.55294
3.53149
3.50886
3.48524
3.46079
3.43572
3.41022
3.38446
3.35866
3.33299
3.30765
3.28282
3.25869
3.23543
3.21322
3.19222
3.17261
3.15454
3.13817
3.12366
3.11115
3.10077
3.09268
3.087
3.08386
3.08338
3.08568
3.09086
3.09903
3.11029
3.12473
3.14245
3.16351
3.188
3.21598
3.24752
3.28268
3.3215
3.36403
3.41032
3.46039
3.51428
3.57201
3.6336
3.69906
3.7684
3.84162
3.91872
3.9997
4.08454
4.17323
4.26575
4.36207
4.46216
4.566
4.67355
4.78476
4.89959
5.018
5.13994
5.26536
5.39419
5.52639
5.66189
5.80063
5.94255
6.08757
6.23563
6.38666
6.54059
6.69735
6.85685
7.01903
7.18381
7.35111
7.52085
7.69296
7.86735
8.04394
8.22267
8.40343
8.58616
8.77078
8.95721
9.14536
9.33515
9.52652
9.71938
9.91365
10.1093
10.3061
10.5042
10.7033
10.9035
11.1047
11.3068
11.5097
11.7133
11.9176
12.1226
12.3281
12.5341
12.7405
12.9472
13.1543
13.3616
13.5692
13.7768
13.9845
14.1923
14.4
14.6076
14.8151
15.0224
15.2295
15.4363
15.6429
15.849
16.0547
16.2601
16.4649
16.6692
16.873
17.0761
17.2787
17.4806
17.6818
17.8823
18.082
18.281
18.4791
18.6765
18.873
19.0686
19.2633
19.4571
19.6499
19.8418
20.0327
20.2226
20.4115
20.5994
20.7862
20.9719
21.1566
21.3402
21.5227
21.704
21.8842
22.0633
22.2413
22.4181
22.5937
22.7682
22.9414
23.1135
23.2844
23.4541
23.6226
23.7899
23.9559
24.1208
24.2844
24.4468
24.608
24.7679
24.9266
25.0841
25.2403
25.3953
25.5491
25.7016
25.8529
26.0029
26.1517
26.2993
26.4456
26.5907
26.7346
26.8772
27.0186
27.1587
27.2976
27.4353
27.5718
27.707
27.8411
27.9739
28.1054
28.2358
28.365
28.4929
28.6196
28.7452
28.8695
28.9926
29.1145
29.2353
29.3548
29.4732
29.5903
29.7063
29.8212
29.9348
30.0473
30.1586
30.2687
30.3777
30.4855
30.5921
30.6976
30.802
30.9052
31.0073
31.1082
31.208
31.3066
31.4041
31.5005
31.5958
31.69
31.783
31.8749
31.9657
32.0554
32.144
32.2314
32.3178
32.4031
32.4873
32.5704
32.6523
32.7332
32.8131
32.8918
32.9694
33.046
33.1215
33.1959
33.2692
33.3415
33.4127
33.4828
33.5519
33.6199
33.6868
33.7527
33.8175
33.8812
33.9439
34.0056
34.0662
34.1257
34.1842
34.2416
34.298
34.3534
34.4077
34.461
34.5132
34.5644
34.6145
34.6636
34.7117
34.7587
34.8047
34.8497
34.8936
34.9365
34.9784
35.0192
35.059
35.0978
35.1356
35.1723
35.208
35.2426
35.2763
35.3089
35.3405
35.3711
35.4006
35.4291
35.4566
35.4831
35.5086
35.533
35.5564
35.5788
35.6002
35.6206
35.6399
35.6582
35.6755
35.6918
35.707
35.7213
35.7345
35.7467
35.7579
35.7681
35.7772
35.7853
35.7925
35.7986
35.8036
35.8077
35.8108
35.8128
35.8138
3.64127
3.63888
3.63412
3.62703
3.61766
3.6061
3.59243
3.57679
3.5593
3.54013
3.51943
3.49738
3.47417
3.44999
3.42502
3.39948
3.37355
3.34743
3.32133
3.29543
3.26992
3.24499
3.22082
3.19759
3.17546
3.1546
3.13518
3.11734
3.10124
3.08703
3.07484
3.06482
3.0571
3.0518
3.04905
3.04897
3.05166
3.05724
3.06581
3.07746
3.09229
3.11039
3.13182
3.15667
3.18501
3.2169
3.25239
3.29153
3.33439
3.38098
3.43135
3.48553
3.54355
3.60541
3.67113
3.74073
3.81421
3.89155
3.97277
4.05784
4.14675
4.23948
4.33601
4.43631
4.54035
4.64808
4.75948
4.87449
4.99308
5.11518
5.24076
5.36975
5.50209
5.63773
5.77661
5.91865
6.0638
6.21198
6.36313
6.51717
6.67402
6.83362
6.99589
7.16076
7.32813
7.49795
7.67012
7.84457
8.02122
8.19999
8.3808
8.56357
8.74822
8.93467
9.12284
9.31266
9.50403
9.6969
9.89117
10.0868
10.2836
10.4817
10.6808
10.881
11.0821
11.2841
11.487
11.6906
11.8948
12.0997
12.3051
12.5111
12.7174
12.9241
13.1311
13.3383
13.5457
13.7533
13.9609
14.1685
14.3761
14.5837
14.791
14.9982
15.2052
15.4119
15.6183
15.8243
16.0299
16.2351
16.4397
16.6439
16.8475
17.0505
17.2529
17.4546
17.6557
17.856
18.0556
18.2544
18.4524
18.6495
18.8458
19.0413
19.2358
19.4294
19.6221
19.8138
20.0045
20.1942
20.3829
20.5705
20.7572
20.9427
21.1272
21.3105
21.4928
21.674
21.854
22.0329
22.2106
22.3872
22.5626
22.7369
22.91
23.0818
23.2525
23.422
23.5903
23.7574
23.9232
24.0878
24.2513
24.4134
24.5744
24.7341
24.8926
25.0499
25.2059
25.3607
25.5143
25.6666
25.8177
25.9675
26.1161
26.2635
26.4096
26.5545
26.6981
26.8406
26.9818
27.1217
27.2604
27.3979
27.5342
27.6693
27.8031
27.9357
28.0671
28.1972
28.3262
28.454
28.5805
28.7058
28.83
28.9529
29.0747
29.1952
29.3146
29.4328
29.5498
29.6656
29.7802
29.8937
30.006
30.1171
30.2271
30.3359
30.4435
30.55
30.6553
30.7595
30.8626
30.9645
31.0652
31.1649
31.2634
31.3607
31.457
31.5521
31.6461
31.739
31.8307
31.9214
32.0109
32.0994
32.1867
32.273
32.3581
32.4421
32.5251
32.6069
32.6877
32.7674
32.846
32.9235
33
33.0753
33.1496
33.2228
33.295
33.366
33.4361
33.505
33.5729
33.6397
33.7055
33.7702
33.8338
33.8964
33.958
34.0185
34.0779
34.1363
34.1936
34.2499
34.3052
34.3594
34.4126
34.4647
34.5158
34.5659
34.6149
34.6629
34.7099
34.7558
34.8007
34.8445
34.8873
34.9291
34.9699
35.0097
35.0484
35.0861
35.1227
35.1583
35.193
35.2265
35.2591
35.2907
35.3212
35.3507
35.3791
35.4066
35.433
35.4584
35.4828
35.5062
35.5286
35.5499
35.5702
35.5895
35.6078
35.6251
35.6413
35.6566
35.6708
35.684
35.6962
35.7073
35.7175
35.7266
35.7347
35.7418
35.7479
35.753
35.7571
35.7601
35.7622
35.7632
3.58648
3.58415
3.57951
3.57259
3.56344
3.55215
3.53881
3.52353
3.50645
3.48772
3.46749
3.44594
3.42324
3.39958
3.37515
3.35014
3.32476
3.29919
3.27363
3.24827
3.2233
3.19891
3.17528
3.15258
3.13098
3.11066
3.09177
3.07446
3.0589
3.04522
3.03357
3.02409
3.0169
3.01213
3.00991
3.01035
3.01357
3.01966
3.02874
3.0409
3.05622
3.0748
3.09672
3.12204
3.15084
3.18318
3.21912
3.25871
3.30199
3.34901
3.3998
3.45439
3.51281
3.57507
3.64119
3.71118
3.78503
3.86276
3.94435
4.02979
4.11906
4.21216
4.30904
4.40969
4.51408
4.62215
4.73389
4.84924
4.96815
5.09059
5.21649
5.3458
5.47846
5.61442
5.7536
5.89595
6.0414
6.18988
6.34132
6.49565
6.65279
6.81267
6.97522
7.14035
7.308
7.47807
7.6505
7.82521
8.00211
8.18112
8.36217
8.54518
8.73006
8.91673
9.10512
9.29515
9.48673
9.6798
9.87427
10.0701
10.2671
10.4653
10.6646
10.865
11.0663
11.2685
11.4715
11.6752
11.8796
12.0846
12.2902
12.4962
12.7027
12.9095
13.1166
13.324
13.5315
13.7391
13.9468
14.1545
14.3622
14.5698
14.7773
14.9845
15.1915
15.3983
15.6047
15.8108
16.0164
16.2216
16.4263
16.6305
16.8341
17.0372
17.2396
17.4413
17.6424
17.8427
18.0423
18.2411
18.439
18.6362
18.8325
19.0279
19.2224
19.416
19.6086
19.8003
19.991
20.1806
20.3693
20.5569
20.7435
20.929
21.1134
21.2967
21.4789
21.66
21.84
22.0188
22.1965
22.373
22.5484
22.7226
22.8956
23.0674
23.238
23.4074
23.5756
23.7426
23.9084
24.0729
24.2363
24.3984
24.5593
24.7189
24.8773
25.0345
25.1904
25.3451
25.4986
25.6508
25.8018
25.9516
26.1001
26.2474
26.3934
26.5382
26.6817
26.8241
26.9652
27.105
27.2437
27.3811
27.5172
27.6522
27.7859
27.9184
28.0497
28.1798
28.3087
28.4363
28.5628
28.688
28.8121
28.9349
29.0566
29.1771
29.2963
29.4144
29.5313
29.647
29.7616
29.875
29.9872
30.0982
30.2081
30.3168
30.4243
30.5307
30.636
30.7401
30.8431
30.9449
31.0456
31.1451
31.2435
31.3408
31.437
31.532
31.6259
31.7187
31.8104
31.901
31.9905
32.0788
32.1661
32.2522
32.3373
32.4213
32.5041
32.5859
32.6666
32.7462
32.8248
32.9022
32.9786
33.0539
33.1281
33.2013
33.2733
33.3443
33.4143
33.4832
33.551
33.6178
33.6835
33.7481
33.8117
33.8742
33.9357
33.9962
34.0555
34.1139
34.1712
34.2274
34.2826
34.3368
34.3899
34.442
34.4931
34.5431
34.5921
34.64
34.6869
34.7328
34.7776
34.8215
34.8642
34.906
34.9467
34.9864
35.0251
35.0628
35.0994
35.135
35.1696
35.2031
35.2357
35.2672
35.2977
35.3271
35.3556
35.383
35.4094
35.4348
35.4592
35.4825
35.5049
35.5262
35.5465
35.5658
35.584
35.6013
35.6175
35.6327
35.6469
35.6601
35.6723
35.6835
35.6936
35.7027
35.7108
35.7179
35.724
35.7291
35.7331
35.7362
35.7382
35.7392
3.53625
3.5339
3.52919
3.52219
3.51294
3.50153
3.48805
3.47263
3.4554
3.43652
3.41615
3.39446
3.37164
3.34787
3.32336
3.29829
3.27288
3.24731
3.22179
3.19651
3.17166
3.14742
3.12398
3.10152
3.08019
3.06018
3.04163
3.02471
3.00955
2.99631
2.98512
2.97612
2.96944
2.96519
2.96349
2.96447
2.96823
2.97487
2.98449
2.99719
3.01306
3.03217
3.05461
3.08046
3.10977
3.14261
3.17905
3.21912
3.26288
3.31036
3.36161
3.41665
3.4755
3.5382
3.60474
3.67514
3.7494
3.82753
3.90951
3.99533
4.08499
4.17845
4.2757
4.37671
4.48145
4.58987
4.70195
4.81763
4.93688
5.05964
5.18585
5.31547
5.44844
5.5847
5.72418
5.86682
6.01255
6.1613
6.31301
6.4676
6.625
6.78513
6.94793
7.1133
7.28118
7.45148
7.62413
7.79905
7.97616
8.15537
8.33662
8.51981
8.70487
8.89172
9.08027
9.27046
9.4622
9.65541
9.85002
10.0459
10.2431
10.4415
10.6409
10.8413
11.0427
11.245
11.4481
11.6519
11.8564
12.0615
12.2671
12.4732
12.6797
12.8865
13.0937
13.3011
13.5086
13.7162
13.924
14.1317
14.3394
14.5469
14.7544
14.9616
15.1686
15.3753
15.5817
15.7877
15.9933
16.1985
16.4031
16.6073
16.8108
17.0138
17.2161
17.4178
17.6187
17.819
18.0184
18.2171
18.415
18.6121
18.8082
19.0035
19.1979
19.3914
19.5839
19.7754
19.966
20.1555
20.3441
20.5316
20.718
20.9033
21.0876
21.2708
21.4529
21.6338
21.8136
21.9923
22.1698
22.3462
22.5214
22.6954
22.8682
23.0399
23.2103
23.3796
23.5476
23.7144
23.8801
24.0444
24.2076
24.3695
24.5302
24.6897
24.848
25.005
25.1607
25.3153
25.4686
25.6206
25.7714
25.921
26.0693
26.2164
26.3623
26.5069
26.6503
26.7924
26.9334
27.073
27.2115
27.3487
27.4847
27.6195
27.7531
27.8854
28.0165
28.1465
28.2751
28.4026
28.5289
28.654
28.7779
28.9006
29.022
29.1423
29.2615
29.3794
29.4961
29.6117
29.7261
29.8393
29.9513
30.0622
30.1719
30.2805
30.3879
30.4941
30.5992
30.7032
30.806
30.9077
31.0082
31.1076
31.2059
31.303
31.399
31.4939
31.5877
31.6804
31.7719
31.8624
31.9517
32.0399
32.127
32.2131
32.298
32.3818
32.4646
32.5463
32.6268
32.7063
32.7847
32.8621
32.9383
33.0135
33.0876
33.1606
33.2326
33.3035
33.3733
33.4421
33.5098
33.5765
33.6421
33.7066
33.7701
33.8326
33.894
33.9543
34.0136
34.0718
34.1291
34.1852
34.2403
34.2944
34.3475
34.3995
34.4504
34.5004
34.5493
34.5971
34.644
34.6898
34.7346
34.7783
34.821
34.8627
34.9034
34.943
34.9816
35.0192
35.0558
35.0913
35.1259
35.1594
35.1918
35.2233
35.2537
35.2832
35.3116
35.339
35.3653
35.3907
35.415
35.4383
35.4606
35.4819
35.5022
35.5214
35.5397
35.5569
35.5731
35.5883
35.6025
35.6156
35.6278
35.6389
35.649
35.6582
35.6663
35.6733
35.6794
35.6845
35.6885
35.6916
35.6936
35.6946
3.46812
3.46583
3.46125
3.45443
3.44542
3.43431
3.42119
3.40617
3.38938
3.37098
3.35111
3.32995
3.30767
3.28446
3.26052
3.23602
3.21118
3.18618
3.16122
3.1365
3.11221
3.08854
3.06565
3.04375
3.02298
3.00353
2.98555
2.9692
2.95463
2.94198
2.9314
2.923
2.91693
2.91331
2.91224
2.91385
2.91824
2.92552
2.93578
2.94912
2.96561
2.98535
3.00842
3.03488
3.0648
3.09824
3.13527
3.17592
3.22026
3.26831
3.32012
3.37572
3.43512
3.49835
3.56543
3.63635
3.71114
3.78978
3.87227
3.95859
4.04875
4.14271
4.24045
4.34194
4.44715
4.55605
4.6686
4.78475
4.90446
5.02767
5.15434
5.28441
5.41782
5.55451
5.69442
5.83749
5.98365
6.13282
6.28495
6.43995
6.59775
6.75828
6.92147
7.08723
7.25549
7.42617
7.59919
7.77448
7.95194
8.13151
8.3131
8.49664
8.68203
8.8692
9.05808
9.24858
9.44063
9.63414
9.82904
10.0253
10.2227
10.4213
10.621
10.8217
11.0234
11.2259
11.4292
11.6332
11.8379
12.0432
12.2491
12.4554
12.6621
12.8691
13.0764
13.284
13.4917
13.6995
13.9073
14.1152
14.323
14.5307
14.7383
14.9456
15.1528
15.3596
15.5661
15.7722
15.9778
16.1831
16.3878
16.592
16.7956
16.9986
17.201
17.4027
17.6037
17.804
18.0035
18.2022
18.4001
18.5972
18.7934
18.9887
19.1831
19.3765
19.569
19.7605
19.9511
20.1406
20.3291
20.5166
20.703
20.8883
21.0725
21.2557
21.4377
21.6186
21.7983
21.977
22.1544
22.3307
22.5059
22.6798
22.8526
23.0242
23.1945
23.3637
23.5317
23.6984
23.8639
24.0282
24.1913
24.3532
24.5138
24.6732
24.8313
24.9882
25.1439
25.2984
25.4515
25.6035
25.7542
25.9037
26.0519
26.1989
26.3447
26.4892
26.6325
26.7745
26.9154
27.0549
27.1933
27.3304
27.4663
27.601
27.7344
27.8667
27.9977
28.1275
28.2561
28.3835
28.5096
28.6346
28.7584
28.881
29.0024
29.1225
29.2415
29.3594
29.476
29.5915
29.7057
29.8188
29.9308
30.0416
30.1512
30.2596
30.3669
30.4731
30.5781
30.6819
30.7846
30.8862
30.9866
31.0859
31.1841
31.2812
31.3771
31.4719
31.5656
31.6581
31.7496
31.8399
31.9292
32.0173
32.1044
32.1903
32.2752
32.3589
32.4416
32.5231
32.6036
32.683
32.7614
32.8386
32.9148
32.9899
33.0639
33.1369
33.2088
33.2796
33.3493
33.4181
33.4857
33.5523
33.6178
33.6823
33.7457
33.8081
33.8694
33.9297
33.9889
34.0471
34.1042
34.1603
34.2154
34.2694
34.3224
34.3743
34.4253
34.4751
34.524
34.5718
34.6186
34.6643
34.7091
34.7528
34.7954
34.8371
34.8777
34.9173
34.9559
34.9934
35.0299
35.0654
35.0999
35.1334
35.1658
35.1973
35.2277
35.2571
35.2854
35.3128
35.3391
35.3644
35.3887
35.412
35.4343
35.4556
35.4758
35.495
35.5133
35.5305
35.5467
35.5618
35.576
35.5891
35.6013
35.6124
35.6225
35.6316
35.6397
35.6468
35.6529
35.6579
35.662
35.665
35.667
35.668
3.4017
3.39942
3.39485
3.38806
3.37909
3.36802
3.35495
3.34
3.3233
3.30498
3.28521
3.26417
3.24201
3.21894
3.19514
3.17081
3.14614
3.12134
3.0966
3.07212
3.04808
3.02468
3.0021
2.98051
2.9601
2.94103
2.92346
2.90755
2.89345
2.88129
2.87123
2.86338
2.85788
2.85484
2.85439
2.85662
2.86166
2.86958
2.8805
2.89449
2.91166
2.93206
2.95579
2.98291
3.01348
3.04758
3.08524
3.12654
3.1715
3.22017
3.27259
3.32878
3.38877
3.45259
3.52024
3.59173
3.66708
3.74627
3.8293
3.91617
4.00686
4.10134
4.1996
4.3016
4.40732
4.51672
4.62976
4.7464
4.86659
4.99028
5.11742
5.24795
5.38182
5.51896
5.65932
5.80283
5.94942
6.09902
6.25157
6.40698
6.5652
6.72613
6.88971
7.05586
7.2245
7.39556
7.56895
7.74459
7.92241
8.10233
8.28425
8.46812
8.65383
8.84132
9.03051
9.22131
9.41364
9.60744
9.80261
9.99909
10.1968
10.3957
10.5956
10.7965
10.9984
11.2011
11.4047
11.6089
11.8138
12.0193
12.2253
12.4317
12.6386
12.8458
13.0532
13.2609
13.4687
13.6767
13.8847
14.0926
14.3005
14.5083
14.716
14.9234
15.1306
15.3374
15.544
15.7501
15.9558
16.1611
16.3658
16.5701
16.7737
16.9767
17.1791
17.3808
17.5818
17.782
17.9815
18.1802
18.3781
18.5751
18.7712
18.9665
19.1608
19.3542
19.5466
19.7381
19.9286
20.118
20.3064
20.4938
20.6801
20.8653
21.0495
21.2325
21.4144
21.5952
21.7749
21.9534
22.1307
22.3069
22.4819
22.6558
22.8284
22.9999
23.1701
23.3391
23.507
23.6736
23.839
24.0031
24.1661
24.3278
24.4883
24.6475
24.8055
24.9623
25.1178
25.2721
25.4251
25.5769
25.7275
25.8768
26.0249
26.1717
26.3173
26.4617
26.6048
26.7467
26.8874
27.0268
27.165
27.302
27.4377
27.5722
27.7055
27.8376
27.9685
28.0981
28.2265
28.3538
28.4798
28.6046
28.7282
28.8506
28.9719
29.0919
29.2108
29.3284
29.4449
29.5602
29.6743
29.7873
29.8991
30.0097
30.1192
30.2275
30.3346
30.4406
30.5455
30.6492
30.7518
30.8532
30.9535
31.0527
31.1507
31.2476
31.3434
31.4381
31.5316
31.624
31.7154
31.8056
31.8947
31.9827
32.0696
32.1554
32.2402
32.3238
32.4063
32.4878
32.5682
32.6474
32.7257
32.8028
32.8788
32.9538
33.0278
33.1006
33.1724
33.2431
33.3128
33.3814
33.4489
33.5154
33.5808
33.6452
33.7085
33.7708
33.832
33.8922
33.9513
34.0094
34.0665
34.1225
34.1775
34.2314
34.2843
34.3362
34.387
34.4368
34.4856
34.5333
34.58
34.6257
34.6704
34.714
34.7566
34.7982
34.8388
34.8783
34.9168
34.9543
34.9908
35.0262
35.0606
35.0941
35.1264
35.1578
35.1882
35.2175
35.2458
35.2732
35.2995
35.3247
35.349
35.3723
35.3945
35.4157
35.4359
35.4551
35.4733
35.4905
35.5067
35.5218
35.536
35.5491
35.5612
35.5723
35.5824
35.5915
35.5996
35.6067
35.6127
35.6178
35.6218
35.6248
35.6268
35.6279
3.32256
3.32035
3.3159
3.30929
3.30056
3.28979
3.27706
3.2625
3.24622
3.22837
3.20909
3.18855
3.16693
3.14439
3.12113
3.09734
3.07321
3.04895
3.02474
3.00078
2.97727
2.95439
2.93233
2.91126
2.89138
2.87283
2.8558
2.84044
2.82689
2.81532
2.80584
2.7986
2.79373
2.79134
2.79155
2.79446
2.80018
2.80882
2.82045
2.83517
2.85306
2.8742
2.89866
2.92652
2.95783
2.99265
3.03105
3.07306
3.11874
3.16812
3.22124
3.27813
3.33881
3.40331
3.47163
3.54379
3.6198
3.69964
3.78333
3.87083
3.96216
4.05727
4.15615
4.25878
4.36512
4.47513
4.58877
4.70601
4.82679
4.95107
5.0788
5.20991
5.34435
5.48207
5.62299
5.76706
5.9142
6.06436
6.21744
6.37339
6.53214
6.6936
6.8577
7.02436
7.1935
7.36506
7.53894
7.71507
7.89336
8.07374
8.25613
8.44045
8.62661
8.81454
9.00415
9.19538
9.38813
9.58232
9.7779
9.97476
10.1728
10.3721
10.5724
10.7737
10.9759
11.1789
11.3828
11.5874
11.7926
11.9983
12.2046
12.4114
12.6185
12.826
13.0337
13.2416
13.4497
13.6578
13.866
14.0742
14.2823
14.4903
14.6981
14.9057
15.113
15.3201
15.5268
15.7331
15.9389
16.1443
16.3492
16.5535
16.7572
16.9604
17.1628
17.3646
17.5657
17.766
17.9655
18.1643
18.3622
18.5593
18.7555
18.9507
19.1451
19.3385
19.531
19.7225
19.9129
20.1024
20.2908
20.4781
20.6644
20.8497
21.0338
21.2168
21.3987
21.5794
21.7591
21.9375
22.1148
22.291
22.4659
22.6397
22.8123
22.9837
23.1538
23.3228
23.4906
23.6571
23.8224
23.9865
24.1494
24.311
24.4714
24.6305
24.7884
24.9451
25.1005
25.2547
25.4077
25.5594
25.7099
25.8591
26.0071
26.1538
26.2993
26.4435
26.5866
26.7283
26.8689
27.0082
27.1463
27.2832
27.4188
27.5532
27.6864
27.8183
27.9491
28.0786
28.2069
28.3341
28.46
28.5847
28.7082
28.8305
28.9516
29.0715
29.1902
29.3078
29.4242
29.5393
29.6534
29.7662
29.8779
29.9884
30.0977
30.2059
30.313
30.4189
30.5236
30.6272
30.7297
30.831
30.9312
31.0302
31.1282
31.225
31.3206
31.4152
31.5086
31.601
31.6922
31.7823
31.8713
31.9592
32.0461
32.1318
32.2164
32.2999
32.3824
32.4637
32.544
32.6232
32.7013
32.7784
32.8543
32.9292
33.0031
33.0758
33.1475
33.2181
33.2877
33.3562
33.4237
33.4901
33.5554
33.6197
33.683
33.7452
33.8063
33.8664
33.9255
33.9835
34.0405
34.0965
34.1514
34.2052
34.2581
34.3099
34.3607
34.4104
34.4591
34.5068
34.5534
34.5991
34.6437
34.6872
34.7298
34.7713
34.8118
34.8513
34.8898
34.9272
34.9636
34.999
35.0334
35.0668
35.0991
35.1305
35.1608
35.1901
35.2184
35.2457
35.2719
35.2972
35.3214
35.3446
35.3669
35.388
35.4082
35.4274
35.4456
35.4627
35.4789
35.494
35.5081
35.5212
35.5333
35.5444
35.5545
35.5636
35.5717
35.5787
35.5848
35.5898
35.5939
35.5969
35.5989
35.5999
3.24351
3.24133
3.23693
3.2304
3.22177
3.21113
3.19855
3.18416
3.16807
3.15043
3.13137
3.11106
3.08968
3.06739
3.04439
3.02086
2.99701
2.97302
2.9491
2.92543
2.90222
2.87965
2.85791
2.83718
2.81764
2.79947
2.78283
2.76789
2.75479
2.74368
2.73471
2.728
2.72368
2.72188
2.7227
2.72626
2.73265
2.74197
2.75432
2.76976
2.7884
2.81029
2.83552
2.86414
2.89622
2.93182
2.97098
3.01376
3.0602
3.11034
3.16421
3.22185
3.28327
3.3485
3.41755
3.49043
3.56714
3.64769
3.73207
3.82027
3.91227
4.00806
4.10762
4.21091
4.3179
4.42856
4.54285
4.66072
4.78214
4.90705
5.03539
5.16712
5.30218
5.44049
5.58202
5.72667
5.8744
6.02513
6.17879
6.3353
6.4946
6.65661
6.82125
6.98845
7.15812
7.33019
7.50458
7.68121
7.86
8.04087
8.22374
8.40852
8.59515
8.78352
8.97358
9.16523
9.3584
9.55302
9.74899
9.94625
10.1447
10.3443
10.545
10.7466
10.9492
11.1526
11.3568
11.5616
11.7671
11.9732
12.1798
12.3868
12.5942
12.8019
13.0099
13.218
13.4263
13.6347
13.8431
14.0515
14.2598
14.4679
14.6759
14.8837
15.0912
15.2983
15.5052
15.7116
15.9175
16.123
16.328
16.5324
16.7362
16.9394
17.142
17.3438
17.5449
17.7453
17.9449
18.1437
18.3416
18.5387
18.7349
18.9302
19.1245
19.318
19.5104
19.7018
19.8923
20.0817
20.2701
20.4574
20.6437
20.8288
21.0129
21.1958
21.3777
21.5584
21.7379
21.9163
22.0935
22.2696
22.4444
22.6181
22.7906
22.9619