/*--------------------------------*- C++ -*----------------------------------*\
| =========                 |                                                 |
| \\      /  F ield         | OpenFOAM: The Open Source CFD Toolbox           |
|  \\    /   O peration     | Version:  2212                                  |
|   \\  /    A nd           | Website:  www.openfoam.com                      |
|    \\/     M anipulation  |                                                 |
\*---------------------------------------------------------------------------*/
FoamFile
{
    version     2.0;
    format      ascii;
    arch        "LSB;label=32;scalar=64";
    class       volScalarField;
    location    "520";
    object      p_rgh_0;
}
// * * * * * * * * * * * * * * * * * * * * * * * * * * * * * * * * * * * * * //

dimensions      [1 -1 -2 0 0 0 0];

internalField   nonuniform List<scalar> 
204800
(
40.4771
40.4674
40.4481
40.4195
40.3814
40.3344
40.2783
40.2138
40.1411
40.0608
39.9732
39.8787
39.7776
39.6703
39.5572
39.4384
39.3142
39.1848
39.0505
38.9114
38.7679
38.62
38.468
38.3121
38.1524
37.9892
37.8226
37.6529
37.4801
37.3046
37.1265
36.946
36.7632
36.5783
36.3915
36.203
36.013
35.8215
35.6288
35.435
35.2404
35.0449
34.8489
34.6524
34.4556
34.2587
34.0617
33.8648
33.6682
33.472
33.2763
33.0813
32.887
32.6936
32.5011
32.3098
32.1197
31.931
31.7436
31.5578
31.3736
31.1911
31.0104
30.8316
30.6548
30.48
30.3074
30.1369
29.9687
29.8029
29.6394
29.4784
29.3199
29.1639
29.0106
28.8599
28.7119
28.5667
28.4242
28.2846
28.1478
28.0139
27.8829
27.7548
27.6297
27.5075
27.3883
27.2721
27.1589
27.0487
26.9415
26.8374
26.7363
26.6382
26.5431
26.4511
26.362
26.2759
26.1929
26.1128
26.0357
25.9615
25.8902
25.8219
25.7564
25.6939
25.6341
25.5772
25.5231
25.4717
25.4231
25.3771
25.3339
25.2933
25.2553
25.2199
25.1871
25.1567
25.1289
25.1035
25.0804
25.0598
25.0415
25.0254
25.0117
25.0001
24.9907
24.9834
24.9783
24.9752
24.974
24.9749
24.9777
24.9824
24.9889
24.9973
25.0074
25.0192
25.0327
25.0479
25.0647
25.083
25.1029
25.1242
25.147
25.1712
25.1968
25.2236
25.2518
25.2812
25.3119
25.3437
25.3766
25.4106
25.4457
25.4819
25.519
25.557
25.596
25.6359
25.6766
25.7182
25.7605
25.8036
25.8474
25.8918
25.937
25.9827
26.0291
26.076
26.1235
26.1714
26.2198
26.2687
26.318
26.3677
26.4178
26.4682
26.519
26.57
26.6213
26.6729
26.7246
26.7766
26.8287
26.881
26.9335
26.986
27.0387
27.0914
27.1441
27.1969
27.2497
27.3025
27.3553
27.4081
27.4608
27.5134
27.5659
27.6183
27.6707
27.7228
27.7749
27.8267
27.8784
27.9299
27.9812
28.0323
28.0831
28.1337
28.1841
28.2342
28.284
28.3335
28.3828
28.4317
28.4804
28.5287
28.5767
28.6243
28.6716
28.7185
28.7651
28.8113
28.8571
28.9026
28.9476
28.9923
29.0365
29.0804
29.1238
29.1668
29.2094
29.2516
29.2933
29.3346
29.3754
29.4158
29.4557
29.4952
29.5343
29.5728
29.6109
29.6486
29.6857
29.7224
29.7586
29.7944
29.8297
29.8644
29.8987
29.9325
29.9659
29.9987
30.0311
30.0629
30.0943
30.1252
30.1555
30.1854
30.2148
30.2437
30.2721
30.3
30.3274
30.3543
30.3807
30.4066
30.432
30.4569
30.4813
30.5052
30.5286
30.5516
30.574
30.5959
30.6173
30.6382
30.6587
30.6786
30.6981
30.717
30.7354
30.7534
30.7709
30.7878
30.8043
30.8203
30.8358
30.8508
30.8653
30.8793
30.8928
30.9059
30.9184
30.9305
30.9421
30.9532
30.9638
30.9739
30.9836
30.9927
31.0014
31.0096
31.0173
31.0245
31.0312
31.0375
31.0432
31.0485
31.0533
31.0577
31.0615
31.0649
31.0678
31.0702
31.0721
31.0735
31.0745
31.075
40.4327
40.4213
40.3988
40.3661
40.3235
40.2721
40.2121
40.1443
40.069
39.9867
39.8976
39.8021
39.7004
39.5927
39.4793
39.3604
39.2361
39.1068
38.9726
38.8337
38.6903
38.5426
38.3908
38.235
38.0756
37.9126
37.7463
37.5768
37.4044
37.2292
37.0513
36.8711
36.6886
36.504
36.3176
36.1294
35.9396
35.7485
35.5561
35.3627
35.1684
34.9733
34.7776
34.5815
34.385
34.1884
33.9918
33.7953
33.5991
33.4032
33.2078
33.0131
32.8192
32.6261
32.4341
32.2431
32.0534
31.8649
31.6779
31.4925
31.3086
31.1265
30.9461
30.7677
30.5912
30.4167
30.2444
30.0743
29.9064
29.7409
29.5777
29.417
29.2588
29.1031
28.9501
28.7997
28.652
28.5071
28.3649
28.2256
28.0891
27.9554
27.8247
27.6968
27.5719
27.45
27.3311
27.2151
27.1021
26.9922
26.8852
26.7813
26.6804
26.5825
26.4876
26.3958
26.3069
26.221
26.1382
26.0582
25.9813
25.9073
25.8362
25.768
25.7027
25.6402
25.5806
25.5238
25.4698
25.4186
25.3701
25.3243
25.2811
25.2407
25.2028
25.1675
25.1347
25.1045
25.0767
25.0513
25.0284
25.0078
24.9895
24.9736
24.9598
24.9483
24.939
24.9318
24.9266
24.9235
24.9225
24.9233
24.9262
24.9309
24.9374
24.9458
24.9559
24.9677
24.9813
24.9964
25.0132
25.0315
25.0514
25.0727
25.0955
25.1196
25.1452
25.172
25.2002
25.2295
25.2601
25.2919
25.3248
25.3588
25.3938
25.4299
25.467
25.505
25.5439
25.5838
25.6244
25.6659
25.7082
25.7512
25.7949
25.8393
25.8844
25.9301
25.9764
26.0232
26.0706
26.1185
26.1668
26.2156
26.2649
26.3145
26.3645
26.4148
26.4655
26.5164
26.5677
26.6191
26.6708
26.7227
26.7748
26.827
26.8793
26.9318
26.9843
27.037
27.0896
27.1423
27.1951
27.2478
27.3005
27.3531
27.4057
27.4583
27.5107
27.5631
27.6153
27.6674
27.7193
27.7711
27.8227
27.8741
27.9253
27.9763
28.027
28.0775
28.1278
28.1778
28.2276
28.277
28.3262
28.375
28.4236
28.4718
28.5197
28.5673
28.6145
28.6613
28.7078
28.7539
28.7997
28.845
28.89
28.9346
28.9788
29.0225
29.0659
29.1088
29.1513
29.1934
29.2351
29.2763
29.317
29.3573
29.3972
29.4366
29.4756
29.5141
29.5521
29.5897
29.6268
29.6634
29.6996
29.7353
29.7705
29.8052
29.8394
29.8732
29.9064
29.9392
29.9715
30.0033
30.0346
30.0654
30.0957
30.1256
30.1549
30.1837
30.2121
30.2399
30.2673
30.2941
30.3205
30.3463
30.3717
30.3966
30.4209
30.4448
30.4682
30.491
30.5134
30.5353
30.5567
30.5776
30.598
30.6179
30.6373
30.6562
30.6746
30.6925
30.7099
30.7269
30.7433
30.7593
30.7747
30.7897
30.8042
30.8182
30.8317
30.8447
30.8572
30.8693
30.8809
30.8919
30.9025
30.9126
30.9222
30.9314
30.94
30.9482
30.9559
30.9631
30.9698
30.9761
30.9818
30.9871
30.9919
30.9962
31
31.0034
31.0063
31.0087
31.0106
31.012
31.013
31.0135
40.416
40.4049
40.3826
40.3501
40.3077
40.2564
40.1965
40.1288
40.0535
39.9711
39.8819
39.7862
39.6843
39.5765
39.4629
39.3438
39.2194
39.0899
38.9556
38.8165
38.673
38.5252
38.3733
38.2174
38.0579
37.8948
37.7284
37.5589
37.3864
37.2111
37.0332
36.8529
36.6704
36.4858
36.2993
36.111
35.9213
35.7301
35.5377
35.3443
35.1499
34.9548
34.7591
34.563
34.3665
34.1699
33.9733
33.7768
33.5805
33.3847
33.1894
32.9947
32.8007
32.6077
32.4156
32.2247
32.035
31.8466
31.6596
31.4742
31.2904
31.1082
30.9279
30.7495
30.5731
30.3986
30.2264
30.0563
29.8884
29.7229
29.5598
29.3992
29.241
29.0854
28.9325
28.7821
28.6345
28.4896
28.3475
28.2082
28.0717
27.9381
27.8075
27.6797
27.5549
27.433
27.3141
27.1982
27.0853
26.9754
26.8685
26.7647
26.6638
26.566
26.4712
26.3794
26.2906
26.2048
26.122
26.0422
25.9653
25.8913
25.8203
25.7522
25.6869
25.6246
25.565
25.5083
25.4544
25.4032
25.3547
25.309
25.2659
25.2255
25.1877
25.1525
25.1198
25.0896
25.0619
25.0366
25.0137
24.9932
24.975
24.9591
24.9454
24.934
24.9247
24.9175
24.9124
24.9094
24.9084
24.9093
24.9122
24.917
24.9236
24.932
24.9422
24.9541
24.9676
24.9829
24.9997
25.018
25.0379
25.0593
25.0821
25.1064
25.1319
25.1588
25.187
25.2165
25.2471
25.2789
25.3118
25.3459
25.381
25.4171
25.4542
25.4923
25.5312
25.5711
25.6118
25.6533
25.6956
25.7387
25.7824
25.8269
25.872
25.9177
25.964
26.0109
26.0583
26.1062
26.1546
26.2034
26.2527
26.3024
26.3524
26.4027
26.4534
26.5044
26.5556
26.6071
26.6588
26.7107
26.7628
26.8151
26.8674
26.9199
26.9725
27.0251
27.0778
27.1305
27.1833
27.236
27.2887
27.3414
27.394
27.4466
27.499
27.5514
27.6036
27.6557
27.7077
27.7594
27.811
27.8625
27.9137
27.9647
28.0155
28.066
28.1163
28.1663
28.216
28.2655
28.3147
28.3635
28.4121
28.4603
28.5082
28.5558
28.603
28.6499
28.6964
28.7425
28.7882
28.8336
28.8786
28.9232
28.9674
29.0111
29.0545
29.0974
29.1399
29.182
29.2237
29.2649
29.3057
29.346
29.3859
29.4253
29.4642
29.5027
29.5408
29.5783
29.6154
29.6521
29.6882
29.7239
29.7591
29.7938
29.8281
29.8618
29.8951
29.9279
29.9602
29.992
30.0233
30.0541
30.0844
30.1142
30.1436
30.1724
30.2008
30.2286
30.256
30.2828
30.3092
30.335
30.3604
30.3852
30.4096
30.4335
30.4569
30.4797
30.5021
30.524
30.5454
30.5663
30.5866
30.6065
30.6259
30.6449
30.6633
30.6812
30.6986
30.7156
30.732
30.748
30.7634
30.7784
30.7929
30.8069
30.8204
30.8334
30.8459
30.858
30.8695
30.8806
30.8912
30.9013
30.9109
30.9201
30.9287
30.9369
30.9446
30.9518
30.9585
30.9647
30.9705
30.9758
30.9806
30.9849
30.9887
30.9921
30.995
30.9974
30.9993
31.0007
31.0017
31.0022
40.3665
40.3547
40.3312
40.2972
40.2529
40.1996
40.1378
40.0683
39.9914
39.9076
39.8173
39.7207
39.618
39.5096
39.3955
39.276
39.1514
39.0217
38.8871
38.748
38.6044
38.4565
38.3046
38.1488
37.9892
37.8262
37.6599
37.4904
37.318
37.1428
36.965
36.7849
36.6025
36.418
36.2316
36.0436
35.854
35.663
35.4708
35.2775
35.0834
34.8885
34.693
34.497
34.3008
34.1044
33.908
33.7117
33.5157
33.3201
33.125
32.9306
32.7369
32.5441
32.3523
32.1616
31.9721
31.784
31.5973
31.4121
31.2285
31.0466
30.8666
30.6884
30.5122
30.3381
30.166
29.9962
29.8286
29.6634
29.5005
29.3401
29.1822
29.0269
28.8741
28.7241
28.5767
28.432
28.2902
28.1511
28.0149
27.8815
27.7511
27.6235
27.4989
27.3773
27.2586
27.1429
27.0303
26.9206
26.8139
26.7103
26.6096
26.512
26.4174
26.3258
26.2372
26.1516
26.069
25.9893
25.9126
25.8389
25.768
25.7001
25.635
25.5728
25.5134
25.4569
25.4031
25.3521
25.3038
25.2582
25.2152
25.175
25.1373
25.1022
25.0696
25.0395
25.012
24.9868
24.964
24.9436
24.9255
24.9097
24.8962
24.8848
24.8756
24.8685
24.8636
24.8606
24.8597
24.8607
24.8637
24.8685
24.8752
24.8837
24.8939
24.9059
24.9195
24.9348
24.9516
24.9701
24.99
25.0114
25.0343
25.0585
25.0842
25.1111
25.1393
25.1688
25.1994
25.2313
25.2642
25.2983
25.3334
25.3695
25.4066
25.4447
25.4837
25.5235
25.5642
25.6058
25.6481
25.6911
25.7349
25.7793
25.8244
25.8701
25.9164
25.9633
26.0107
26.0586
26.107
26.1558
26.205
26.2546
26.3046
26.355
26.4056
26.4566
26.5078
26.5593
26.6109
26.6628
26.7149
26.7671
26.8194
26.8718
26.9244
26.977
27.0296
27.0823
27.135
27.1877
27.2404
27.293
27.3456
27.3981
27.4505
27.5028
27.555
27.6071
27.659
27.7107
27.7623
27.8136
27.8648
27.9158
27.9665
28.017
28.0672
28.1172
28.1669
28.2163
28.2654
28.3142
28.3627
28.4109
28.4588
28.5063
28.5534
28.6003
28.6467
28.6928
28.7385
28.7838
28.8287
28.8733
28.9174
28.9611
29.0044
29.0473
29.0898
29.1318
29.1734
29.2146
29.2553
29.2956
29.3354
29.3748
29.4137
29.4522
29.4902
29.5277
29.5648
29.6013
29.6375
29.6731
29.7083
29.7429
29.7771
29.8108
29.8441
29.8768
29.9091
29.9408
29.9721
30.0029
30.0332
30.0629
30.0922
30.121
30.1494
30.1772
30.2045
30.2313
30.2576
30.2835
30.3088
30.3336
30.3579
30.3818
30.4051
30.428
30.4503
30.4722
30.4935
30.5144
30.5348
30.5546
30.574
30.5929
30.6113
30.6292
30.6466
30.6635
30.6799
30.6959
30.7113
30.7263
30.7407
30.7547
30.7682
30.7812
30.7937
30.8057
30.8173
30.8283
30.8389
30.849
30.8586
30.8677
30.8764
30.8845
30.8922
30.8994
30.9061
30.9124
30.9181
30.9234
30.9282
30.9325
30.9363
30.9397
30.9425
30.9449
30.9469
30.9483
30.9492
30.9497
40.3381
40.3266
40.3035
40.2699
40.226
40.1731
40.1116
40.0422
39.9653
39.8815
39.791
39.6942
39.5912
39.4825
39.3681
39.2483
39.1233
38.9934
38.8585
38.7191
38.5753
38.4271
38.275
38.1189
37.9592
37.796
37.6295
37.4599
37.2873
37.112
36.9341
36.7538
36.5712
36.3867
36.2002
36.012
35.8223
35.6313
35.439
35.2457
35.0515
34.8565
34.661
34.465
34.2687
34.0723
33.8759
33.6796
33.4836
33.2879
33.0928
32.8984
32.7047
32.5119
32.3201
32.1294
31.94
31.7519
31.5652
31.38
31.1965
31.0147
30.8347
30.6566
30.4804
30.3063
30.1344
29.9646
29.7971
29.6319
29.4691
29.3088
29.151
28.9957
28.8431
28.6931
28.5458
28.4012
28.2594
28.1205
27.9843
27.8511
27.7207
27.5933
27.4688
27.3473
27.2287
27.1132
27.0006
26.891
26.7845
26.6809
26.5804
26.4829
26.3884
26.297
26.2085
26.123
26.0405
25.961
25.8844
25.8107
25.74
25.6722
25.6073
25.5452
25.4859
25.4295
25.3758
25.3249
25.2768
25.2313
25.1885
25.1484
25.1108
25.0758
25.0434
25.0135
24.986
24.9609
24.9383
24.918
24.9001
24.8844
24.8709
24.8597
24.8506
24.8437
24.8388
24.836
24.8352
24.8363
24.8394
24.8443
24.8511
24.8597
24.87
24.8821
24.8958
24.9112
24.9282
24.9467
24.9668
24.9883
25.0113
25.0356
25.0613
25.0884
25.1167
25.1462
25.177
25.2089
25.2419
25.2761
25.3113
25.3475
25.3847
25.4229
25.4619
25.5019
25.5426
25.5842
25.6266
25.6697
25.7136
25.7581
25.8032
25.849
25.8954
25.9423
25.9898
26.0378
26.0862
26.1351
26.1844
26.2341
26.2841
26.3345
26.3852
26.4362
26.4875
26.539
26.5907
26.6427
26.6948
26.747
26.7994
26.8519
26.9045
26.9571
27.0098
27.0625
27.1153
27.168
27.2207
27.2734
27.326
27.3785
27.431
27.4833
27.5355
27.5876
27.6396
27.6913
27.7429
27.7943
27.8455
27.8965
27.9473
27.9978
28.048
28.098
28.1477
28.1972
28.2463
28.2952
28.3437
28.3919
28.4398
28.4873
28.5345
28.5813
28.6278
28.6739
28.7196
28.765
28.8099
28.8544
28.8986
28.9423
28.9857
29.0286
29.071
29.1131
29.1547
29.1959
29.2366
29.2769
29.3167
29.3561
29.3951
29.4335
29.4715
29.5091
29.5461
29.5827
29.6189
29.6545
29.6897
29.7244
29.7586
29.7923
29.8255
29.8583
29.8905
29.9223
29.9536
29.9843
30.0146
30.0444
30.0737
30.1025
30.1309
30.1587
30.186
30.2128
30.2391
30.265
30.2903
30.3151
30.3395
30.3633
30.3867
30.4095
30.4319
30.4537
30.4751
30.4959
30.5163
30.5362
30.5556
30.5745
30.5928
30.6107
30.6282
30.6451
30.6615
30.6774
30.6929
30.7078
30.7223
30.7363
30.7498
30.7628
30.7753
30.7873
30.7989
30.8099
30.8205
30.8306
30.8402
30.8493
30.858
30.8661
30.8738
30.881
30.8877
30.894
30.8997
30.905
30.9098
30.9141
30.9179
30.9213
30.9241
30.9265
30.9285
30.9299
30.9308
30.9313
40.2863
40.2746
40.2512
40.217
40.1726
40.1189
40.0565
39.9862
39.9084
39.8237
39.7323
39.6347
39.5311
39.4217
39.3067
39.1864
39.061
38.9306
38.7954
38.6557
38.5116
38.3632
38.2109
38.0547
37.8948
37.7315
37.5649
37.3951
37.2225
37.0471
36.8692
36.6888
36.5063
36.3217
36.1353
35.9471
35.7575
35.5664
35.3742
35.1809
34.9868
34.7919
34.5965
34.4006
34.2044
34.0081
33.8118
33.6156
33.4197
33.2242
33.0293
32.835
32.6414
32.4488
32.2572
32.0667
31.8774
31.6894
31.5029
31.3179
31.1346
30.953
30.7731
30.5952
30.4193
30.2454
30.0736
29.904
29.7367
29.5717
29.4092
29.2491
29.0914
28.9364
28.784
28.6342
28.4871
28.3428
28.2012
28.0624
27.9265
27.7935
27.6634
27.5362
27.4119
27.2906
27.1722
27.0569
26.9445
26.8352
26.7289
26.6255
26.5252
26.428
26.3337
26.2424
26.1541
26.0689
25.9866
25.9072
25.8309
25.7574
25.6869
25.6193
25.5546
25.4927
25.4336
25.3774
25.3239
25.2732
25.2252
25.18
25.1373
25.0974
25.06
25.0252
24.9929
24.9632
24.9359
24.911
24.8885
24.8684
24.8506
24.8351
24.8218
24.8107
24.8018
24.795
24.7902
24.7876
24.7869
24.7882
24.7913
24.7964
24.8033
24.8121
24.8225
24.8347
24.8486
24.8641
24.8811
24.8998
24.9199
24.9416
24.9646
24.9891
25.0149
25.042
25.0704
25.1
25.1309
25.1629
25.196
25.2302
25.2655
25.3018
25.3391
25.3773
25.4164
25.4564
25.4973
25.5389
25.5814
25.6245
25.6684
25.713
25.7582
25.804
25.8504
25.8974
25.9449
25.9929
26.0414
26.0903
26.1396
26.1893
26.2394
26.2899
26.3406
26.3916
26.4429
26.4944
26.5462
26.5981
26.6502
26.7025
26.7549
26.8074
26.86
26.9126
26.9653
27.0181
27.0708
27.1236
27.1763
27.2289
27.2816
27.3341
27.3865
27.4389
27.4911
27.5432
27.5951
27.6469
27.6984
27.7498
27.801
27.852
27.9027
27.9532
28.0035
28.0535
28.1032
28.1526
28.2017
28.2506
28.2991
28.3472
28.3951
28.4426
28.4898
28.5366
28.5831
28.6291
28.6748
28.7202
28.7651
28.8096
28.8537
28.8974
28.9408
28.9836
29.0261
29.0681
29.1097
29.1509
29.1916
29.2319
29.2717
29.311
29.3499
29.3884
29.4264
29.4639
29.5009
29.5375
29.5736
29.6092
29.6444
29.679
29.7132
29.7469
29.7801
29.8128
29.8451
29.8768
29.9081
29.9388
29.9691
29.9989
30.0282
30.057
30.0852
30.113
30.1403
30.1671
30.1935
30.2193
30.2446
30.2694
30.2937
30.3175
30.3409
30.3637
30.386
30.4079
30.4292
30.45
30.4704
30.4903
30.5096
30.5285
30.5469
30.5648
30.5822
30.5991
30.6155
30.6314
30.6468
30.6618
30.6762
30.6902
30.7037
30.7167
30.7292
30.7412
30.7527
30.7638
30.7743
30.7844
30.794
30.8031
30.8118
30.8199
30.8276
30.8348
30.8415
30.8477
30.8535
30.8587
30.8635
30.8678
30.8717
30.875
30.8779
30.8803
30.8822
30.8836
30.8846
30.8851
40.2498
40.2384
40.2153
40.1816
40.1376
40.0844
40.0223
39.9522
39.8744
39.7896
39.6981
39.6002
39.4962
39.3864
39.2711
39.1504
39.0245
38.8937
38.7582
38.618
38.4735
38.3248
38.1721
38.0156
37.8554
37.6918
37.5249
37.3549
37.182
37.0064
36.8282
36.6477
36.4649
36.2802
36.0936
35.9053
35.7154
35.5243
35.3319
35.1385
34.9443
34.7493
34.5537
34.3577
34.1615
33.9651
33.7687
33.5725
33.3766
33.181
32.986
32.7917
32.5982
32.4055
32.2139
32.0234
31.8341
31.6462
31.4597
31.2747
31.0914
30.9098
30.73
30.5522
30.3763
30.2024
30.0307
29.8612
29.694
29.5291
29.3666
29.2066
29.0491
28.8941
28.7418
28.5921
28.4451
28.3009
28.1595
28.0209
27.8851
27.7522
27.6222
27.4951
27.371
27.2498
27.1316
27.0164
26.9042
26.795
26.6888
26.5857
26.4855
26.3884
26.2943
26.2032
26.1151
26.03
25.9479
25.8687
25.7925
25.7193
25.6489
25.5815
25.5169
25.4552
25.3963
25.3403
25.287
25.2365
25.1887
25.1436
25.1012
25.0614
25.0242
24.9896
24.9575
24.9279
24.9008
24.8761
24.8538
24.8338
24.8162
24.8009
24.7878
24.7768
24.7681
24.7615
24.7569
24.7544
24.7539
24.7553
24.7587
24.764
24.771
24.7799
24.7906
24.8029
24.8169
24.8326
24.8498
24.8686
24.8889
24.9107
24.9339
24.9585
24.9845
25.0117
25.0403
25.0701
25.101
25.1332
25.1664
25.2008
25.2362
25.2726
25.31
25.3484
25.3876
25.4278
25.4687
25.5105
25.553
25.5963
25.6403
25.685
25.7303
25.7763
25.8228
25.8699
25.9175
25.9656
26.0142
26.0632
26.1126
26.1624
26.2126
26.2631
26.3139
26.365
26.4164
26.468
26.5199
26.5719
26.6241
26.6764
26.7289
26.7815
26.8341
26.8868
26.9396
26.9924
27.0452
27.098
27.1508
27.2036
27.2562
27.3088
27.3613
27.4137
27.466
27.5181
27.5701
27.6219
27.6736
27.725
27.7762
27.8273
27.878
27.9286
27.9789
28.0289
28.0786
28.1281
28.1773
28.2261
28.2747
28.3229
28.3708
28.4184
28.4656
28.5124
28.5589
28.605
28.6507
28.6961
28.741
28.7856
28.8298
28.8735
28.9168
28.9597
29.0022
29.0443
29.0859
29.1271
29.1678
29.2081
29.2479
29.2873
29.3262
29.3647
29.4027
29.4402
29.4773
29.5139
29.55
29.5856
29.6208
29.6555
29.6897
29.7234
29.7566
29.7893
29.8216
29.8533
29.8846
29.9154
29.9457
29.9755
30.0048
30.0336
30.0619
30.0897
30.117
30.1438
30.1701
30.1959
30.2212
30.2461
30.2704
30.2942
30.3176
30.3404
30.3627
30.3846
30.4059
30.4268
30.4471
30.467
30.4864
30.5052
30.5236
30.5415
30.5589
30.5758
30.5922
30.6082
30.6236
30.6386
30.653
30.667
30.6805
30.6935
30.706
30.718
30.7295
30.7406
30.7512
30.7612
30.7708
30.78
30.7886
30.7968
30.8044
30.8116
30.8183
30.8246
30.8303
30.8356
30.8404
30.8447
30.8485
30.8519
30.8547
30.8571
30.859
30.8605
30.8614
30.8619
40.1968
40.1854
40.1623
40.1286
40.0845
40.031
39.9686
39.898
39.8197
39.7343
39.6422
39.5436
39.439
39.3286
39.2126
39.0913
38.9649
38.8336
38.6975
38.557
38.4121
38.263
38.1099
37.9531
37.7926
37.6287
37.4615
37.2913
37.1182
36.9424
36.764
36.5833
36.4005
36.2156
36.0288
35.8404
35.6505
35.4593
35.2669
35.0734
34.8791
34.6841
34.4885
34.2925
34.0963
33.8999
33.7036
33.5074
33.3115
33.116
32.921
32.7268
32.5333
32.3407
32.1492
31.9587
31.7696
31.5817
31.3954
31.2105
31.0273
30.8459
30.6662
30.4885
30.3127
30.1391
29.9675
29.7982
29.6311
29.4664
29.3041
29.1442
28.9869
28.8321
28.68
28.5305
28.3837
28.2397
28.0984
27.96
27.8245
27.6918
27.562
27.4351
27.3112
27.1902
27.0723
26.9573
26.8453
26.7364
26.6304
26.5275
26.4276
26.3307
26.2368
26.1459
26.0581
25.9732
25.8913
25.8124
25.7364
25.6634
25.5933
25.5261
25.4618
25.4003
25.3416
25.2858
25.2328
25.1825
25.1349
25.09
25.0478
25.0083
24.9713
24.9369
24.905
24.8757
24.8488
24.8243
24.8022
24.7825
24.7651
24.7499
24.737
24.7263
24.7178
24.7114
24.707
24.7047
24.7044
24.706
24.7096
24.715
24.7223
24.7313
24.7422
24.7547
24.7689
24.7847
24.8021
24.8211
24.8415
24.8635
24.8869
24.9116
24.9377
24.9651
24.9938
25.0238
25.0549
25.0872
25.1206
25.1551
25.1906
25.2272
25.2647
25.3032
25.3425
25.3828
25.4239
25.4657
25.5084
25.5518
25.5959
25.6407
25.6861
25.7321
25.7788
25.8259
25.8736
25.9218
25.9705
26.0196
26.0691
26.119
26.1692
26.2198
26.2707
26.3219
26.3734
26.425
26.4769
26.529
26.5813
26.6337
26.6862
26.7388
26.7915
26.8443
26.8971
26.95
27.0029
27.0557
27.1085
27.1613
27.214
27.2666
27.3192
27.3716
27.4239
27.4761
27.5281
27.5799
27.6316
27.6831
27.7343
27.7854
27.8362
27.8868
27.9371
27.9871
28.0369
28.0864
28.1355
28.1844
28.233
28.2812
28.3291
28.3767
28.4239
28.4708
28.5173
28.5634
28.6091
28.6545
28.6994
28.744
28.7881
28.8319
28.8752
28.9181
28.9606
29.0027
29.0443
29.0855
29.1262
29.1665
29.2063
29.2457
29.2846
29.3231
29.3611
29.3986
29.4357
29.4723
29.5084
29.544
29.5792
29.6138
29.648
29.6817
29.715
29.7477
29.7799
29.8117
29.8429
29.8737
29.904
29.9338
29.9631
29.9918
30.0201
30.0479
30.0752
30.102
30.1284
30.1542
30.1795
30.2043
30.2286
30.2524
30.2758
30.2986
30.3209
30.3428
30.3641
30.385
30.4053
30.4252
30.4445
30.4634
30.4818
30.4997
30.5171
30.534
30.5504
30.5663
30.5817
30.5967
30.6111
30.6251
30.6386
30.6515
30.664
30.6761
30.6876
30.6986
30.7092
30.7193
30.7289
30.738
30.7466
30.7548
30.7625
30.7696
30.7764
30.7826
30.7883
30.7936
30.7984
30.8027
30.8065
30.8099
30.8127
30.8151
30.817
30.8185
30.8194
30.8199
40.1545
40.1432
40.1205
40.0872
40.0435
39.9903
39.9282
39.8578
39.7795
39.694
39.6016
39.5028
39.3978
39.2869
39.1705
39.0487
38.9218
38.7899
38.6534
38.5123
38.3669
38.2174
38.0639
37.9066
37.7457
37.5814
37.4139
37.2433
37.0698
36.8937
36.715
36.534
36.3509
36.1657
35.9787
35.7901
35.5999
35.4085
35.2158
35.0222
34.8277
34.6326
34.4368
34.2407
34.0443
33.8478
33.6514
33.4551
33.2591
33.0635
32.8685
32.6742
32.4806
32.288
32.0964
31.906
31.7168
31.529
31.3426
31.1578
30.9746
30.7932
30.6135
30.4359
30.2601
30.0865
29.915
29.7458
29.5788
29.4141
29.2519
29.0922
28.9349
28.7803
28.6282
28.4789
28.3322
28.1883
28.0472
27.909
27.7735
27.641
27.5114
27.3847
27.2609
27.1402
27.0224
26.9076
26.7958
26.687
26.5813
26.4785
26.3788
26.2821
26.1885
26.0978
26.0101
25.9255
25.8438
25.7651
25.6894
25.6166
25.5467
25.4797
25.4156
25.3544
25.2959
25.2403
25.1875
25.1375
25.0901
25.0455
25.0035
24.9642
24.9275
24.8933
24.8617
24.8326
24.8059
24.7817
24.7598
24.7403
24.7232
24.7083
24.6956
24.6851
24.6768
24.6706
24.6665
24.6644
24.6643
24.6662
24.67
24.6756
24.6831
24.6924
24.7034
24.7162
24.7306
24.7466
24.7642
24.7834
24.8041
24.8262
24.8498
24.8748
24.9011
24.9287
24.9576
24.9877
25.019
25.0515
25.0851
25.1197
25.1555
25.1922
25.2299
25.2685
25.3081
25.3485
25.3897
25.4318
25.4746
25.5182
25.5624
25.6074
25.653
25.6991
25.7459
25.7932
25.8411
25.8894
25.9382
25.9874
26.0371
26.0871
26.1375
26.1882
26.2392
26.2905
26.3421
26.3939
26.4459
26.4981
26.5505
26.603
26.6556
26.7083
26.7612
26.814
26.867
26.9199
26.9729
27.0258
27.0787
27.1316
27.1844
27.2371
27.2897
27.3422
27.3946
27.4469
27.499
27.5509
27.6026
27.6542
27.7055
27.7566
27.8075
27.8581
27.9085
27.9586
28.0084
28.058
28.1072
28.1561
28.2048
28.2531
28.301
28.3486
28.3959
28.4428
28.4893
28.5355
28.5813
28.6267
28.6717
28.7163
28.7605
28.8043
28.8477
28.8906
28.9331
28.9752
29.0169
29.0581
29.0989
29.1392
29.1791
29.2185
29.2574
29.2959
29.3339
29.3715
29.4086
29.4452
29.4813
29.517
29.5522
29.5869
29.6211
29.6548
29.688
29.7208
29.7531
29.7848
29.8161
29.8469
29.8772
29.907
29.9363
29.9651
29.9934
30.0212
30.0486
30.0754
30.1017
30.1275
30.1529
30.1777
30.202
30.2258
30.2492
30.272
30.2944
30.3162
30.3376
30.3584
30.3788
30.3987
30.418
30.4369
30.4553
30.4732
30.4906
30.5075
30.5239
30.5398
30.5553
30.5702
30.5847
30.5987
30.6121
30.6251
30.6376
30.6497
30.6612
30.6723
30.6828
30.6929
30.7025
30.7116
30.7203
30.7284
30.7361
30.7433
30.75
30.7562
30.762
30.7672
30.772
30.7763
30.7802
30.7835
30.7864
30.7888
30.7907
30.7921
30.7931
30.7936
40.1006
40.0893
40.0667
40.0335
39.9899
39.9367
39.8745
39.8038
39.7252
39.6393
39.5464
39.447
39.3413
39.2299
39.1128
38.9904
38.8628
38.7304
38.5933
38.4516
38.3057
38.1556
38.0016
37.8439
37.6826
37.5179
37.35
37.179
37.0052
36.8288
36.6498
36.4685
36.2851
36.0997
35.9125
35.7236
35.5333
35.3417
35.1489
34.9551
34.7605
34.5652
34.3693
34.1731
33.9766
33.7801
33.5835
33.3872
33.1911
32.9955
32.8005
32.6062
32.4126
32.22
32.0285
31.8381
31.6489
31.4611
31.2748
31.09
30.9069
30.7256
30.5461
30.3685
30.1929
30.0193
29.848
29.6788
29.512
29.3475
29.1854
29.0258
28.8687
28.7143
28.5624
28.4132
28.2668
28.123
27.9821
27.8441
27.7088
27.5765
27.4471
27.3206
27.1971
27.0766
26.959
26.8444
26.7329
26.6243
26.5188
26.4163
26.3169
26.2204
26.127
26.0366
25.9492
25.8648
25.7834
25.705
25.6295
25.557
25.4874
25.4207
25.3568
25.2959
25.2377
25.1824
25.1299
25.0801
25.033
24.9887
24.947
24.9079
24.8715
24.8376
24.8062
24.7774
24.751
24.727
24.7054
24.6862
24.6693
24.6546
24.6422
24.632
24.624
24.618
24.6142
24.6123
24.6125
24.6146
24.6186
24.6245
24.6323
24.6418
24.6531
24.666
24.6807
24.6969
24.7148
24.7342
24.7551
24.7775
24.8012
24.8264
24.8529
24.8808
24.9099
24.9402
24.9717
25.0044
25.0382
25.073
25.1089
25.1458
25.1837
25.2225
25.2623
25.3029
25.3443
25.3865
25.4295
25.4732
25.5176
25.5627
25.6084
25.6548
25.7017
25.7492
25.7971
25.8456
25.8945
25.9439
25.9937
26.0438
26.0943
26.1452
26.1963
26.2478
26.2994
26.3513
26.4035
26.4558
26.5082
26.5608
26.6136
26.6664
26.7193
26.7723
26.8253
26.8783
26.9314
26.9844
27.0374
27.0904
27.1432
27.196
27.2487
27.3013
27.3538
27.4061
27.4582
27.5102
27.562
27.6136
27.665
27.7162
27.7671
27.8178
27.8682
27.9184
27.9682
28.0178
28.0671
28.1161
28.1648
28.2131
28.2611
28.3088
28.3561
28.403
28.4496
28.4958
28.5416
28.587
28.6321
28.6767
28.7209
28.7647
28.8081
28.8511
28.8937
28.9358
28.9774
29.0187
29.0595
29.0998
29.1397
29.1791
29.2181
29.2566
29.2946
29.3322
29.3693
29.4059
29.4421
29.4778
29.513
29.5477
29.5819
29.6156
29.6489
29.6816
29.7139
29.7457
29.777
29.8078
29.8381
29.8679
29.8972
29.926
29.9543
29.9822
30.0095
30.0363
30.0626
30.0885
30.1138
30.1386
30.163
30.1868
30.2101
30.233
30.2553
30.2772
30.2985
30.3194
30.3398
30.3596
30.379
30.3979
30.4163
30.4342
30.4516
30.4685
30.4849
30.5008
30.5162
30.5312
30.5457
30.5596
30.5731
30.5861
30.5986
30.6106
30.6222
30.6332
30.6438
30.6539
30.6635
30.6726
30.6812
30.6894
30.6971
30.7043
30.711
30.7172
30.7229
30.7282
30.733
30.7373
30.7411
30.7445
30.7474
30.7498
30.7517
30.7531
30.7541
30.7545
40.0538
40.0427
40.0203
39.9874
39.9441
39.8912
39.8291
39.7586
39.68
39.5939
39.5007
39.4009
39.2949
39.1829
39.0652
38.9422
38.8141
38.6811
38.5434
38.4011
38.2546
38.104
37.9495
37.7912
37.6294
37.4642
37.2958
37.1244
36.9501
36.7733
36.5939
36.4122
36.2284
36.0427
35.8551
35.6659
35.4753
35.2834
35.0903
34.8963
34.7014
34.5059
34.3098
34.1134
33.9167
33.72
33.5233
33.3268
33.1306
32.9349
32.7398
32.5453
32.3517
32.159
31.9674
31.7769
31.5877
31.3999
31.2135
31.0288
30.8457
30.6643
30.4848
30.3073
30.1317
29.9582
29.7869
29.6178
29.4511
29.2867
29.1247
28.9652
28.8082
28.6538
28.5021
28.3531
28.2067
28.0632
27.9224
27.7845
27.6495
27.5173
27.3881
27.2618
27.1385
27.0181
26.9007
26.7864
26.6751
26.5667
26.4615
26.3592
26.26
26.1638
26.0706
25.9805
25.8933
25.8092
25.728
25.6499
25.5746
25.5024
25.433
25.3666
25.303
25.2424
25.1845
25.1295
25.0772
25.0277
24.9809
24.9369
24.8955
24.8567
24.8205
24.7869
24.7559
24.7273
24.7012
24.6775
24.6562
24.6373
24.6207
24.6063
24.5942
24.5843
24.5765
24.5709
24.5673
24.5658
24.5662
24.5686
24.5729
24.5791
24.5871
24.5969
24.6084
24.6217
24.6366
24.6531
24.6713
24.6909
24.7121
24.7347
24.7587
24.7842
24.8109
24.839
24.8684
24.8989
24.9307
24.9636
24.9976
25.0327
25.0688
25.106
25.1441
25.1831
25.2231
25.2639
25.3055
25.348
25.3911
25.4351
25.4797
25.525
25.5709
25.6174
25.6645
25.7122
25.7604
25.809
25.8581
25.9077
25.9576
26.0079
26.0586
26.1096
26.1609
26.2125
26.2643
26.3164
26.3687
26.4211
26.4737
26.5265
26.5794
26.6323
26.6854
26.7385
26.7916
26.8448
26.898
26.9511
27.0042
27.0573
27.1103
27.1632
27.216
27.2687
27.3213
27.3737
27.4259
27.478
27.5299
27.5816
27.6331
27.6844
27.7354
27.7862
27.8367
27.8869
27.9369
27.9865
28.0359
28.085
28.1337
28.1821
28.2302
28.2779
28.3253
28.3723
28.4189
28.4652
28.5111
28.5566
28.6017
28.6463
28.6906
28.7345
28.778
28.821
28.8636
28.9057
28.9475
28.9888
29.0296
29.07
29.1099
29.1494
29.1884
29.2269
29.265
29.3026
29.3398
29.3764
29.4126
29.4483
29.4836
29.5183
29.5526
29.5863
29.6196
29.6524
29.6847
29.7165
29.7478
29.7787
29.809
29.8388
29.8682
29.897
29.9253
29.9532
29.9805
30.0074
30.0337
30.0596
30.0849
30.1098
30.1341
30.158
30.1813
30.2042
30.2266
30.2484
30.2698
30.2907
30.311
30.3309
30.3503
30.3692
30.3876
30.4055
30.4229
30.4398
30.4563
30.4722
30.4877
30.5026
30.5171
30.5311
30.5446
30.5576
30.5701
30.5821
30.5937
30.6047
30.6153
30.6254
30.635
30.6441
30.6528
30.6609
30.6686
30.6758
30.6825
30.6887
30.6945
30.6998
30.7046
30.7089
30.7127
30.7161
30.7189
30.7213
30.7232
30.7247
30.7256
30.7261
39.9987
39.9877
39.9654
39.9326
39.8894
39.8366
39.7745
39.7038
39.6249
39.5384
39.4448
39.3444
39.2378
39.1252
39.0069
38.8832
38.7544
38.6207
38.4823
38.3394
38.1923
38.041
37.8859
37.7271
37.5647
37.399
37.2301
37.0582
36.8835
36.7062
36.5264
36.3444
36.1602
35.9741
35.7862
35.5967
35.4058
35.2136
35.0203
34.826
34.6309
34.4351
34.2389
34.0422
33.8454
33.6485
33.4517
33.2551
33.0588
32.863
32.6677
32.4732
32.2795
32.0868
31.8951
31.7046
31.5154
31.3276
31.1412
30.9565
30.7734
30.5921
30.4127
30.2352
30.0597
29.8863
29.7151
29.5461
29.3794
29.2151
29.0533
28.8939
28.7371
28.5829
28.4313
28.2824
28.1363
27.9929
27.8524
27.7146
27.5798
27.4479
27.3189
27.1928
27.0697
26.9496
26.8325
26.7184
26.6073
26.4992
26.3942
26.2922
26.1933
26.0974
26.0045
25.9146
25.8278
25.7439
25.6631
25.5852
25.5103
25.4383
25.3693
25.3031
25.2399
25.1795
25.122
25.0673
25.0153
24.9661
24.9197
24.8759
24.8349
24.7964
24.7606
24.7273
24.6966
24.6683
24.6425
24.6192
24.5982
24.5796
24.5633
24.5493
24.5375
24.5279
24.5204
24.5151
24.5118
24.5106
24.5113
24.5141
24.5187
24.5252
24.5335
24.5436
24.5554
24.5689
24.5841
24.601
24.6194
24.6393
24.6607
24.6836
24.708
24.7337
24.7607
24.789
24.8186
24.8495
24.8815
24.9146
24.9489
24.9843
25.0206
25.058
25.0964
25.1356
25.1758
25.2169
25.2587
25.3014
25.3448
25.3889
25.4337
25.4792