/*--------------------------------*- C++ -*----------------------------------*\
| =========                 |                                                 |
| \\      /  F ield         | OpenFOAM: The Open Source CFD Toolbox           |
|  \\    /   O peration     | Version:  2212                                  |
|   \\  /    A nd           | Website:  www.openfoam.com                      |
|    \\/     M anipulation  |                                                 |
\*---------------------------------------------------------------------------*/
FoamFile
{
    version     2.0;
    format      ascii;
    arch        "LSB;label=32;scalar=64";
    class       volScalarField;
    location    "270";
    object      p_rgh_0;
}
// * * * * * * * * * * * * * * * * * * * * * * * * * * * * * * * * * * * * * //

dimensions      [1 -1 -2 0 0 0 0];

internalField   nonuniform List<scalar> 
204800
(
8.08063
8.07692
8.07003
8.05948
8.04566
8.02835
8.00784
7.98405
7.9572
7.92732
7.89462
7.85921
7.82128
7.78101
7.73861
7.69429
7.64829
7.60085
7.55222
7.50263
7.45237
7.40167
7.35079
7.29998
7.24948
7.19954
7.15038
7.10223
7.05529
7.00977
6.96586
6.92375
6.8836
6.8456
6.80988
6.77661
6.74591
6.71793
6.69278
6.67059
6.65145
6.63548
6.62276
6.61339
6.60744
6.605
6.60612
6.61088
6.61932
6.63151
6.64747
6.66726
6.6909
6.71843
6.74985
6.7852
6.82448
6.86769
6.91485
6.96594
7.02096
7.07989
7.14272
7.20942
7.27997
7.35434
7.43249
7.51439
7.6
7.68927
7.78216
7.87862
7.97859
8.08202
8.18886
8.29904
8.4125
8.52917
8.649
8.7719
8.89781
9.02666
9.15837
9.29286
9.43007
9.5699
9.71229
9.85716
10.0044
10.154
10.3058
10.4598
10.6158
10.7738
10.9338
11.0956
11.2591
11.4243
11.5912
11.7595
11.9293
12.1005
12.273
12.4466
12.6215
12.7974
12.9743
13.1521
13.3308
13.5102
13.6904
13.8713
14.0527
14.2346
14.417
14.5998
14.7829
14.9663
15.1499
15.3337
15.5175
15.7014
15.8853
16.0691
16.2529
16.4364
16.6198
16.8029
16.9857
17.1682
17.3503
17.532
17.7132
17.8939
18.0741
18.2537
18.4327
18.611
18.7887
18.9657
19.1419
19.3174
19.4921
19.666
19.839
20.0112
20.1825
20.3528
20.5223
20.6908
20.8583
21.0248
21.1903
21.3548
21.5183
21.6807
21.842
22.0023
22.1614
22.3195
22.4764
22.6322
22.7869
22.9404
23.0928
23.244
23.394
23.5429
23.6906
23.8371
23.9824
24.1265
24.2694
24.4111
24.5516
24.6909
24.8289
24.9658
25.1014
25.2359
25.3691
25.5011
25.6319
25.7614
25.8898
26.0169
26.1428
26.2676
26.3911
26.5134
26.6344
26.7543
26.873
26.9905
27.1068
27.2219
27.3358
27.4486
27.5601
27.6705
27.7797
27.8878
27.9946
28.1003
28.2049
28.3083
28.4106
28.5117
28.6117
28.7106
28.8083
28.9049
29.0004
29.0948
29.1881
29.2802
29.3713
29.4613
29.5502
29.638
29.7248
29.8105
29.8951
29.9787
30.0612
30.1426
30.223
30.3024
30.3808
30.4581
30.5344
30.6097
30.684
30.7573
30.8295
30.9008
30.9711
31.0404
31.1087
31.1761
31.2425
31.3079
31.3723
31.4358
31.4984
31.56
31.6207
31.6804
31.7392
31.7971
31.854
31.91
31.9651
32.0194
32.0727
32.1251
32.1766
32.2272
32.2769
32.3258
32.3737
32.4208
32.467
32.5124
32.5569
32.6005
32.6432
32.6852
32.7262
32.7664
32.8058
32.8443
32.882
32.9189
32.9549
32.9901
33.0245
33.058
33.0907
33.1227
33.1538
33.1841
33.2135
33.2422
33.2701
33.2971
33.3234
33.3489
33.3736
33.3975
33.4206
33.4429
33.4644
33.4851
33.5051
33.5242
33.5426
33.5602
33.5771
33.5931
33.6084
33.6229
33.6367
33.6497
33.6619
33.6733
33.684
33.6939
33.703
33.7114
33.719
33.7259
33.7319
33.7373
33.7418
33.7456
33.7487
33.751
33.7525
33.7532
8.10312
8.09908
8.09131
8.07955
8.0641
8.04486
8.02211
7.99587
7.9664
7.93381
7.89835
7.86021
7.81964
7.77684
7.73207
7.68557
7.6376
7.5884
7.53822
7.48732
7.43593
7.38431
7.33268
7.28129
7.23034
7.18007
7.13069
7.08239
7.03538
6.98983
6.94595
6.90389
6.86383
6.82592
6.79031
6.75715
6.72657
6.69871
6.67368
6.65159
6.63257
6.6167
6.60407
6.59479
6.58893
6.58656
6.58775
6.59256
6.60106
6.61329
6.62929
6.6491
6.67277
6.7003
6.73173
6.76707
6.80634
6.84954
6.89667
6.94772
7.0027
7.06158
7.12434
7.19098
7.26146
7.33574
7.41381
7.49561
7.58111
7.67028
7.76305
7.85938
7.95922
8.06252
8.16921
8.27924
8.39254
8.50905
8.6287
8.75143
8.87715
9.00581
9.13733
9.27162
9.40862
9.54824
9.69041
9.83505
9.98208
10.1314
10.283
10.4367
10.5925
10.7503
10.91
11.0715
11.2348
11.3998
11.5663
11.7344
11.9039
12.0748
12.247
12.4204
12.5949
12.7705
12.9471
13.1247
13.303
13.4822
13.6621
13.8426
14.0237
14.2054
14.3874
14.5699
14.7527
14.9358
15.1191
15.3025
15.486
15.6696
15.8532
16.0367
16.2201
16.4034
16.5864
16.7692
16.9517
17.1338
17.3156
17.497
17.6779
17.8582
18.0381
18.2174
18.396
18.5741
18.7514
18.9281
19.104
19.2792
19.4536
19.6271
19.7998
19.9717
20.1427
20.3127
20.4818
20.65
20.8172
20.9834
21.1486
21.3128
21.476
21.6381
21.7991
21.9591
22.1179
22.2757
22.4323
22.5878
22.7422
22.8955
23.0475
23.1985
23.3482
23.4968
23.6442
23.7904
23.9354
24.0793
24.2219
24.3633
24.5036
24.6426
24.7804
24.917
25.0524
25.1866
25.3195
25.4513
25.5818
25.7111
25.8392
25.9661
26.0918
26.2163
26.3395
26.4616
26.5825
26.7021
26.8206
26.9378
27.0539
27.1688
27.2825
27.395
27.5063
27.6165
27.7255
27.8333
27.94
28.0455
28.1499
28.2531
28.3551
28.4561
28.5559
28.6545
28.7521
28.8485
28.9438
29.038
29.1311
29.2231
29.314
29.4038
29.4925
29.5802
29.6668
29.7523
29.8367
29.9201
30.0025
30.0838
30.164
30.2433
30.3215
30.3986
30.4748
30.5499
30.6241
30.6972
30.7693
30.8405
30.9106
30.9798
31.048
31.1152
31.1814
31.2467
31.311
31.3744
31.4368
31.4983
31.5589
31.6185
31.6772
31.7349
31.7917
31.8477
31.9027
31.9568
32.01
32.0623
32.1137
32.1642
32.2138
32.2626
32.3104
32.3574
32.4036
32.4488
32.4932
32.5367
32.5794
32.6212
32.6622
32.7024
32.7416
32.7801
32.8177
32.8545
32.8904
32.9256
32.9599
32.9934
33.026
33.0579
33.0889
33.1191
33.1486
33.1772
33.205
33.232
33.2582
33.2836
33.3083
33.3321
33.3552
33.3774
33.3989
33.4196
33.4395
33.4586
33.477
33.4946
33.5114
33.5274
33.5427
33.5571
33.5709
33.5838
33.596
33.6074
33.6181
33.6279
33.6371
33.6454
33.653
33.6599
33.6659
33.6712
33.6758
33.6796
33.6826
33.6849
33.6864
33.6872
8.08051
8.07652
8.0688
8.05713
8.04179
8.0227
8.00012
7.97407
7.94482
7.91247
7.87728
7.8394
7.79911
7.7566
7.71213
7.66593
7.61826
7.56936
7.51949
7.46888
7.41779
7.36645
7.31511
7.26398
7.21331
7.1633
7.11416
7.0661
7.01932
6.97401
6.93034
6.8885
6.84864
6.81093
6.77552
6.74254
6.71215
6.68446
6.6596
6.63769
6.61882
6.60311
6.59065
6.58151
6.5758
6.57357
6.57491
6.57986
6.58849
6.60085
6.61699
6.63693
6.66072
6.68838
6.71993
6.75539
6.79478
6.83809
6.88533
6.9365
6.99159
7.05058
7.11345
7.18019
7.25077
7.32516
7.40333
7.48523
7.57084
7.6601
7.75296
7.84939
7.94932
8.05271
8.15949
8.26961
8.383
8.49959
8.61933
8.74214
8.86795
8.99669
9.12828
9.26265
9.39972
9.53942
9.68166
9.82637
9.97347
10.1229
10.2745
10.4283
10.5842
10.742
10.9018
11.0633
11.2267
11.3917
11.5583
11.7264
11.896
12.0669
12.2392
12.4126
12.5872
12.7628
12.9395
13.117
13.2954
13.4746
13.6545
13.8351
14.0162
14.1979
14.38
14.5625
14.7453
14.9284
15.1117
15.2951
15.4787
15.6623
15.8459
16.0294
16.2128
16.3961
16.5791
16.7619
16.9444
17.1266
17.3083
17.4897
17.6706
17.8509
18.0308
18.2101
18.3887
18.5667
18.7441
18.9207
19.0966
19.2718
19.4461
19.6197
19.7924
19.9642
20.1352
20.3052
20.4743
20.6425
20.8096
20.9758
21.141
21.3052
21.4683
21.6304
21.7914
21.9513
22.1102
22.2679
22.4245
22.58
22.7343
22.8875
23.0396
23.1905
23.3402
23.4887
23.6361
23.7823
23.9273
24.0711
24.2137
24.3551
24.4953
24.6343
24.772
24.9086
25.0439
25.1781
25.311
25.4427
25.5732
25.7025
25.8306
25.9574
26.0831
26.2075
26.3307
26.4528
26.5736
26.6932
26.8116
26.9288
27.0449
27.1597
27.2734
27.3859
27.4972
27.6073
27.7162
27.824
27.9307
28.0361
28.1405
28.2436
28.3457
28.4466
28.5463
28.6449
28.7425
28.8388
28.9341
29.0283
29.1213
29.2133
29.3042
29.3939
29.4826
29.5703
29.6568
29.7423
29.8267
29.9101
29.9924
30.0737
30.1539
30.2331
30.3113
30.3884
30.4645
30.5396
30.6137
30.6868
30.7589
30.83
30.9002
30.9693
31.0375
31.1047
31.1709
31.2361
31.3004
31.3638
31.4262
31.4876
31.5482
31.6078
31.6664
31.7241
31.781
31.8368
31.8918
31.9459
31.9991
32.0514
32.1027
32.1532
32.2028
32.2516
32.2994
32.3464
32.3925
32.4377
32.4821
32.5256
32.5683
32.6101
32.6511
32.6912
32.7304
32.7689
32.8065
32.8432
32.8792
32.9143
32.9486
32.982
33.0147
33.0465
33.0776
33.1078
33.1372
33.1658
33.1936
33.2206
33.2468
33.2722
33.2968
33.3207
33.3437
33.3659
33.3874
33.4081
33.428
33.4471
33.4655
33.483
33.4998
33.5159
33.5311
33.5456
33.5593
33.5722
33.5844
33.5958
33.6065
33.6163
33.6255
33.6338
33.6414
33.6482
33.6543
33.6596
33.6642
33.668
33.671
33.6733
33.6748
33.6756
8.06803
8.06387
8.05571
8.04344
8.0273
8.00726
7.98357
7.95633
7.92579
7.89212
7.85558
7.81639
7.77481
7.73109
7.68549
7.63826
7.58967
7.53997
7.48942
7.43825
7.38671
7.33504
7.28346
7.23219
7.18146
7.13145
7.08239
7.03445
6.98783
6.94271
6.89927
6.85767
6.81806
6.78062
6.74548
6.71278
6.68266
6.65524
6.63065
6.609
6.59039
6.57492
6.5627
6.5538
6.54831
6.54631
6.54785
6.55301
6.56184
6.57438
6.59069
6.61081
6.63476
6.66258
6.69428
6.72988
6.7694
6.81284
6.8602
6.91149
6.96668
7.02577
7.08874
7.15557
7.22623
7.30069
7.37892
7.46089
7.54655
7.63586
7.72877
7.82523
7.92519
8.02861
8.13541
8.24554
8.35893
8.47553
8.59527
8.71807
8.84386
8.97258
9.10415
9.23849
9.37552
9.51518
9.65737
9.80203
9.94908
10.0984
10.25
10.4037
10.5595
10.7173
10.8769
11.0384
11.2017
11.3666
11.5331
11.7011
11.8706
12.0414
12.2135
12.3868
12.5612
12.7368
12.9133
13.0907
13.269
13.448
13.6278
13.8082
13.9891
14.1706
14.3526
14.5349
14.7176
14.9005
15.0836
15.2669
15.4503
15.6337
15.8171
16.0004
16.1836
16.3667
16.5495
16.7321
16.9144
17.0964
17.278
17.4591
17.6398
17.82
17.9996
18.1787
18.3571
18.5349
18.7121
18.8885
19.0642
19.2391
19.4133
19.5866
19.7591
19.9307
20.1014
20.2713
20.4402
20.6081
20.7751
20.941
21.106
21.27
21.4329
21.5947
21.7555
21.9152
22.0738
22.2313
22.3877
22.543
22.6971
22.8501
23.002
23.1526
23.3021
23.4505
23.5976
23.7436
23.8884
24.032
24.1744
24.3156
24.4555
24.5943
24.7319
24.8682
25.0034
25.1373
25.2701
25.4016
25.5319
25.6609
25.7888
25.9155
26.0409
26.1652
26.2882
26.41
26.5307
26.6501
26.7683
26.8854
27.0012
27.1159
27.2294
27.3417
27.4528
27.5628
27.6715
27.7792
27.8856
27.9909
28.0951
28.1981
28.2999
28.4007
28.5003
28.5987
28.6961
28.7923
28.8874
28.9814
29.0743
29.1661
29.2569
29.3465
29.435
29.5225
29.6089
29.6942
29.7785
29.8618
29.9439
30.0251
30.1052
30.1842
30.2623
30.3393
30.4153
30.4902
30.5642
30.6372
30.7092
30.7802
30.8502
30.9192
30.9872
31.0543
31.1204
31.1855
31.2497
31.313
31.3753
31.4366
31.497
31.5565
31.6151
31.6727
31.7294
31.7852
31.8401
31.8941
31.9472
31.9993
32.0506
32.101
32.1506
32.1992
32.247
32.2939
32.3399
32.385
32.4293
32.4728
32.5154
32.5571
32.598
32.638
32.6772
32.7156
32.7531
32.7898
32.8257
32.8607
32.895
32.9284
32.961
32.9927
33.0237
33.0539
33.0832
33.1118
33.1395
33.1665
33.1927
33.218
33.2426
33.2664
33.2894
33.3116
33.333
33.3537
33.3735
33.3926
33.4109
33.4285
33.4452
33.4612
33.4765
33.4909
33.5046
33.5175
33.5297
33.5411
33.5517
33.5615
33.5706
33.579
33.5866
33.5934
33.5994
33.6047
33.6093
33.6131
33.6161
33.6184
33.6199
33.6206
8.02392
8.01985
8.01182
7.99976
7.98389
7.96418
7.94089
7.9141
7.88405
7.8509
7.81492
7.7763
7.73531
7.69218
7.64718
7.60055
7.55255
7.50343
7.45344
7.40283
7.35183
7.30068
7.24961
7.19884
7.14858
7.09904
7.05043
7.00294
6.95675
6.91205
6.86901
6.82781
6.78859
6.75153
6.71676
6.68442
6.65465
6.62758
6.60332
6.582
6.56371
6.54857
6.53665
6.52805
6.52286
6.52114
6.52297
6.52841
6.53751
6.55033
6.5669
6.58728
6.61149
6.63956
6.67151
6.70736
6.74712
6.7908
6.8384
6.88992
6.94534
7.00466
7.06785
7.1349
7.20578
7.28046
7.35891
7.44109
7.52696
7.61648
7.70959
7.80626
7.90643
8.01004
8.11704
8.22736
8.34095
8.45774
8.57766
8.70064
8.82662
8.95552
9.08726
9.22177
9.35898
9.4988
9.64117
9.78599
9.93319
10.0827
10.2344
10.3883
10.5442
10.7021
10.8619
11.0236
11.1869
11.352
11.5186
11.6868
11.8563
12.0273
12.1995
12.3729
12.5475
12.7231
12.8997
13.0772
13.2556
13.4347
13.6146
13.7951
13.9761
14.1577
14.3397
14.5221
14.7048
14.8878
15.071
15.2543
15.4378
15.6212
15.8047
15.988
16.1713
16.3544
16.5373
16.7199
16.9023
17.0842
17.2658
17.447
17.6277
17.8079
17.9876
18.1666
18.3451
18.5229
18.7
18.8765
19.0522
19.2271
19.4012
19.5746
19.747
19.9186
20.0894
20.2592
20.428
20.596
20.7629
20.9288
21.0938
21.2577
21.4206
21.5824
21.7432
21.9028
22.0614
22.2189
22.3753
22.5305
22.6846
22.8375
22.9893
23.14
23.2894
23.4377
23.5848
23.7308
23.8755
24.019
24.1614
24.3025
24.4425
24.5812
24.7187
24.855
24.9901
25.124
25.2567
25.3881
25.5184
25.6474
25.7752
25.9018
26.0272
26.1514
26.2744
26.3961
26.5167
26.6361
26.7543
26.8713
26.9871
27.1017
27.2151
27.3273
27.4384
27.5483
27.657
27.7646
27.871
27.9762
28.0803
28.1833
28.2851
28.3857
28.4853
28.5837
28.681
28.7772
28.8722
28.9662
29.059
29.1508
29.2414
29.331
29.4195
29.5069
29.5933
29.6786
29.7628
29.846
29.9281
30.0092
30.0892
30.1682
30.2462
30.3232
30.3991
30.4741
30.548
30.6209
30.6928
30.7638
30.8337
30.9027
30.9707
31.0377
31.1038
31.1689
31.233
31.2962
31.3585
31.4198
31.4802
31.5396
31.5981
31.6557
31.7124
31.7681
31.823
31.8769
31.93
31.9821
32.0334
32.0838
32.1332
32.1818
32.2296
32.2764
32.3224
32.3675
32.4118
32.4552
32.4978
32.5395
32.5803
32.6203
32.6595
32.6979
32.7354
32.772
32.8079
32.8429
32.8771
32.9105
32.9431
32.9748
33.0058
33.0359
33.0652
33.0938
33.1215
33.1484
33.1746
33.1999
33.2245
33.2482
33.2712
33.2934
33.3148
33.3355
33.3553
33.3744
33.3927
33.4102
33.427
33.4429
33.4582
33.4726
33.4863
33.4992
33.5113
33.5227
33.5333
33.5432
33.5523
33.5606
33.5682
33.575
33.5811
33.5864
33.5909
33.5947
33.5977
33.6
33.6015
33.6022
7.98338
7.97926
7.97107
7.95882
7.94265
7.92263
7.89896
7.87177
7.8413
7.80773
7.77133
7.73231
7.69094
7.64747
7.60217
7.5553
7.50711
7.45786
7.4078
7.35718
7.30623
7.25519
7.20428
7.15371
7.1037
7.05446
7.00617
6.95902
6.91321
6.8689
6.82627
6.78549
6.7467
6.71007
6.67573
6.64382
6.61448
6.58783
6.56399
6.54308
6.5252
6.51045
6.49892
6.4907
6.48588
6.48452
6.48671
6.49249
6.50192
6.51507
6.53196
6.55265
6.57716
6.60553
6.63777
6.6739
6.71394
6.75789
6.80576
6.85753
6.9132
6.97276
7.0362
7.10348
7.17459
7.24949
7.32816
7.41055
7.49662
7.58633
7.67964
7.7765
7.87685
7.98064
8.08781
8.1983
8.31205
8.429
8.54907
8.6722
8.79832
8.92735
9.05923
9.19386
9.33119
9.47113
9.6136
9.75853
9.90583
10.0554
10.2072
10.3612
10.5172
10.6752
10.835
10.9967
11.1602
11.3253
11.4919
11.6601
11.8297
12.0007
12.173
12.3464
12.521
12.6966
12.8732
13.0507
13.2291
13.4082
13.5881
13.7685
13.9496
14.1311
14.3131
14.4954
14.6781
14.8611
15.0442
15.2275
15.4108
15.5942
15.7776
15.9609
16.1441
16.3272
16.51
16.6925
16.8747
17.0566
17.2381
17.4192
17.5998
17.7799
17.9594
18.1384
18.3167
18.4945
18.6715
18.8478
19.0234
19.1982
19.3722
19.5454
19.7177
19.8892
20.0598
20.2294
20.3982
20.5659
20.7327
20.8985
21.0633
21.2271
21.3898
21.5515
21.7121
21.8716
22.0301
22.1874
22.3436
22.4987
22.6526
22.8054
22.957
23.1075
23.2568
23.405
23.5519
23.6977
23.8422
23.9856
24.1278
24.2688
24.4086
24.5471
24.6845
24.8206
24.9556
25.0893
25.2218
25.3531
25.4832
25.6121
25.7397
25.8662
25.9914
26.1154
26.2382
26.3599
26.4803
26.5995
26.7175
26.8344
26.95
27.0645
27.1777
27.2898
27.4007
27.5105
27.6191
27.7265
27.8327
27.9378
28.0418
28.1446
28.2462
28.3468
28.4462
28.5444
28.6416
28.7376
28.8325
28.9264
29.0191
29.1107
29.2012
29.2907
29.379
29.4663
29.5526
29.6377
29.7218
29.8049
29.8869
29.9678
30.0478
30.1266
30.2045
30.2814
30.3572
30.432
30.5058
30.5786
30.6504
30.7213
30.7911
30.86
30.9279
30.9948
31.0608
31.1258
31.1898
31.2529
31.3151
31.3763
31.4365
31.4959
31.5543
31.6118
31.6684
31.7241
31.7788
31.8327
31.8856
31.9377
31.9889
32.0392
32.0886
32.1371
32.1848
32.2315
32.2774
32.3225
32.3667
32.41
32.4525
32.4941
32.5349
32.5749
32.614
32.6523
32.6897
32.7263
32.7621
32.7971
32.8312
32.8645
32.8971
32.9288
32.9597
32.9898
33.019
33.0475
33.0752
33.1021
33.1282
33.1535
33.178
33.2017
33.2247
33.2468
33.2682
33.2888
33.3086
33.3277
33.3459
33.3634
33.3802
33.3961
33.4113
33.4257
33.4394
33.4523
33.4644
33.4757
33.4863
33.4962
33.5053
33.5136
33.5211
33.5279
33.534
33.5393
33.5438
33.5476
33.5506
33.5529
33.5544
33.5551
7.92031
7.91629
7.90828
7.89632
7.88053
7.86097
7.83784
7.81126
7.78145
7.7486
7.71294
7.6747
7.63412
7.59146
7.54697
7.50089
7.45349
7.40502
7.35572
7.30584
7.25562
7.20528
7.15505
7.10515
7.05579
7.00717
6.9595
6.91296
6.86774
6.82402
6.78196
6.74174
6.7035
6.6674
6.63359
6.60221
6.57338
6.54724
6.52389
6.50346
6.48606
6.47177
6.4607
6.45293
6.44855
6.44763
6.45024
6.45644
6.46629
6.47984
6.49714
6.51822
6.54312
6.57187
6.60449
6.641
6.68141
6.72573
6.77395
6.82609
6.88212
6.94203
7.00581
7.07344
7.14489
7.22014
7.29914
7.38186
7.46826
7.55831
7.65194
7.74912
7.84979
7.95389
8.06138
8.17218
8.28624
8.40349
8.52386
8.64729
8.7737
8.90302
9.03518
9.1701
9.30771
9.44792
9.59066
9.73585
9.88342
10.0333
10.1853
10.3395
10.4958
10.654
10.8141
10.9761
11.1397
11.305
11.4719
11.6403
11.8102
11.9813
12.1538
12.3274
12.5022
12.678
12.8548
13.0325
13.211
13.3903
13.5703
13.7509
13.9321
14.1138
14.2959
14.4784
14.6612
14.8443
15.0275
15.2109
15.3944
15.5779
15.7614
15.9448
16.1281
16.3112
16.4941
16.6767
16.859
17.041
17.2225
17.4037
17.5843
17.7645
17.9441
18.1231
18.3015
18.4792
18.6562
18.8326
19.0082
19.183
19.357
19.5302
19.7026
19.8741
20.0447
20.2143
20.3831
20.5508
20.7176
20.8834
21.0482
21.212
21.3747
21.5363
21.6969
21.8564
22.0148
22.1721
22.3283
22.4833
22.6372
22.79
22.9416
23.092
23.2413
23.3894
23.5363
23.682
23.8265
23.9699
24.112
24.2529
24.3926
24.5312
24.6685
24.8045
24.9394
25.0731
25.2055
25.3368
25.4668
25.5956
25.7232
25.8496
25.9748
26.0987
26.2215
26.343
26.4634
26.5825
26.7005
26.8173
26.9328
27.0472
27.1604
27.2725
27.3833
27.493
27.6015
27.7088
27.815
27.92
28.0239
28.1267
28.2283
28.3287
28.428
28.5262
28.6233
28.7193
28.8141
28.9079
29.0005
29.0921
29.1826
29.2719
29.3602
29.4475
29.5336
29.6187
29.7027
29.7857
29.8677
29.9486
30.0284
30.1072
30.185
30.2618
30.3376
30.4124
30.4861
30.5589
30.6306
30.7014
30.7712
30.84
30.9078
30.9747
31.0406
31.1055
31.1695
31.2326
31.2947
31.3558
31.416
31.4753
31.5337
31.5911
31.6477
31.7033
31.758
31.8118
31.8647
31.9167
31.9679
32.0181
32.0675
32.116
32.1636
32.2103
32.2562
32.3012
32.3453
32.3886
32.4311
32.4727
32.5134
32.5533
32.5924
32.6306
32.668
32.7046
32.7404
32.7753
32.8094
32.8427
32.8752
32.9069
32.9377
32.9678
32.9971
33.0255
33.0532
33.08
33.1061
33.1314
33.1559
33.1796
33.2025
33.2246
33.246
33.2666
33.2864
33.3054
33.3236
33.3411
33.3578
33.3738
33.3889
33.4033
33.417
33.4299
33.442
33.4533
33.4639
33.4737
33.4828
33.4911
33.4987
33.5055
33.5115
33.5168
33.5213
33.5251
33.5281
33.5304
33.5319
33.5326
7.85724
7.85324
7.84524
7.83331
7.81754
7.79804
7.77497
7.74847
7.71875
7.68602
7.65049
7.61241
7.57201
7.52955
7.48529
7.43947
7.39235
7.34419
7.29523
7.24571
7.19588
7.14596
7.09617
7.04673
6.99786
6.94975
6.9026
6.8566
6.81193
6.76877
6.72728
6.68763
6.64997
6.61445
6.58122
6.55042
6.52216
6.49659
6.4738
6.45393
6.43707
6.42333
6.41279
6.40554
6.40167
6.40125
6.40435
6.41104
6.42136
6.43538
6.45314
6.47467
6.50002
6.5292
6.56225
6.59918
6.64001
6.68473
6.73336
6.78589
6.84231
6.90261
6.96678
7.03478
7.1066
7.18221
7.26157
7.34464
7.43139
7.52178
7.61576
7.71327
7.81427
7.9187
8.0265
8.13762
8.25198
8.36954
8.49021
8.61393
8.74063
8.87024
9.00267
9.13787
9.27574
9.41621
9.55921
9.70465
9.85246
10.0026
10.1549
10.3093
10.4657
10.6242
10.7845
10.9466
11.1105
11.276
11.4431
11.6117
11.7817
11.953
12.1256
12.2994
12.4743
12.6503
12.8272
13.005
13.1837
13.3631
13.5432
13.7239
13.9052
14.087
14.2692
14.4517
14.6346
14.8178
15.0011
15.1845
15.368
15.5516
15.7351
15.9186
16.1019
16.285
16.4679
16.6505
16.8329
17.0148
17.1964
17.3775
17.5581
17.7383
17.9178
18.0968
18.2752
18.4529
18.6299
18.8062
18.9818
19.1565
19.3305
19.5037
19.6759
19.8474
20.0179
20.1875
20.3561
20.5238
20.6905
20.8563
21.021
21.1846
21.3473
21.5088
21.6693
21.8287
21.987
22.1442
22.3003
22.4552
22.609
22.7616
22.9131
23.0635
23.2126
23.3606
23.5074
23.653
23.7974
23.9406
24.0826
24.2234
24.363
24.5014
24.6386
24.7745
24.9093
25.0428
25.1751
25.3062
25.4361
25.5648
25.6923
25.8185
25.9436
26.0674
26.19
26.3115
26.4317
26.5507
26.6685
26.7852
26.9006
27.0149
27.1279
27.2398
27.3505
27.4601
27.5685
27.6757
27.7817
27.8866
27.9904
28.093
28.1945
28.2948
28.394
28.4921
28.589
28.6849
28.7796
28.8732
28.9658
29.0572
29.1475
29.2368
29.325
29.4121
29.4981
29.5831
29.667
29.7499
29.8317
29.9125
29.9923
30.071
30.1487
30.2253
30.301
30.3757
30.4493
30.5219
30.5936
30.6643
30.734
30.8027
30.8704
30.9372
31.003
31.0678
31.1317
31.1947
31.2567
31.3177
31.3779
31.4371
31.4954
31.5527
31.6092
31.6647
31.7193
31.7731
31.8259
31.8778
31.9289
31.979
32.0283
32.0767
32.1243
32.1709
32.2167
32.2617
32.3058
32.349
32.3914
32.4329
32.4736
32.5134
32.5524
32.5906
32.628
32.6645
32.7002
32.7351
32.7691
32.8024
32.8348
32.8664
32.8972
32.9272
32.9564
32.9849
33.0125
33.0393
33.0653
33.0906
33.115
33.1387
33.1616
33.1837
33.205
33.2255
33.2453
33.2643
33.2825
33.3
33.3166
33.3325
33.3477
33.3621
33.3757
33.3885
33.4006
33.412
33.4225
33.4324
33.4414
33.4497
33.4572
33.464
33.4701
33.4753
33.4799
33.4836
33.4866
33.4889
33.4904
33.4912
7.7778
7.77391
7.76613
7.75452
7.73917
7.72019
7.69772
7.67189
7.64292
7.61098
7.5763
7.53909
7.49959
7.45804
7.41468
7.36978
7.32356
7.27629
7.2282
7.17954
7.13054
7.08144
7.03245
6.9838
6.93569
6.88833
6.84192
6.79665
6.75269
6.71023
6.66944
6.63048
6.5935
6.55866
6.5261
6.49595
6.46835
6.44342
6.42128
6.40203
6.38579
6.37265
6.36271
6.35606
6.35277
6.35293
6.3566
6.36384
6.37472
6.38928
6.40757
6.42963
6.4555
6.48521
6.51877
6.55621
6.59753
6.64276
6.69188
6.7449
6.8018
6.86258
6.92722
6.9957
7.06799
7.14406
7.22388
7.30742
7.39463
7.48547
7.57989
7.67785
7.77929
7.88416
7.9924
8.10395
8.21874
8.33672
8.45781
8.58195
8.70907
8.83908
8.97192
9.10751
9.24578
9.38665
9.53003
9.67585
9.82404
9.9745
10.1272
10.2819
10.4388
10.5976
10.7582
10.9207
11.0849
11.2507
11.4181
11.587
11.7573
11.929
12.1019
12.2759
12.4511
12.6274
12.8045
12.9826
13.1615
13.3412
13.5215
13.7025
13.884
14.066
14.2484
14.4312
14.6143
14.7976
14.9811
15.1648
15.3485
15.5322
15.7159
15.8995
16.0829
16.2662
16.4493
16.632
16.8145
16.9966
17.1782
17.3595
17.5402
17.7204
17.9001
18.0792
18.2576
18.4354
18.6125
18.7888
18.9644
19.1393
19.3133
19.4865
19.6588
19.8303
20.0008
20.1705
20.3392
20.5069
20.6736
20.8393
21.004
21.1677
21.3304
21.4919
21.6524
21.8118
21.9701
22.1273
22.2833
22.4382
22.592
22.7446
22.8961
23.0464
23.1955
23.3434
23.4902
23.6357
23.7801
23.9233
24.0652
24.206
24.3455
24.4839
24.621
24.7569
24.8916
25.0251
25.1573
25.2884
25.4182
25.5468
25.6742
25.8004
25.9254
26.0492
26.1717
26.2931
26.4132
26.5322
26.6499
26.7665
26.8819
26.9961
27.1091
27.2209
27.3315
27.441
27.5493
27.6564
27.7624
27.8673
27.9709
28.0735
28.1749
28.2751
28.3742
28.4722
28.5691
28.6649
28.7595
28.8531
28.9455
29.0369
29.1272
29.2163
29.3044
29.3915
29.4774
29.5623
29.6462
29.729
29.8107
29.8914
29.9711
30.0498
30.1274
30.204
30.2796
30.3542
30.4277
30.5003
30.5719
30.6425
30.7121
30.7808
30.8484
30.9151
30.9809
31.0457
31.1095
31.1724
31.2343
31.2953
31.3554
31.4145
31.4727
31.5301
31.5864
31.6419
31.6965
31.7502
31.8029
31.8548
31.9058
31.9559
32.0051
32.0535
32.101
32.1476
32.1933
32.2382
32.2823
32.3255
32.3678
32.4093
32.4499
32.4897
32.5287
32.5668
32.6041
32.6406
32.6763
32.7111
32.7451
32.7783
32.8107
32.8423
32.8731
32.9031
32.9322
32.9606
32.9882
33.015
33.041
33.0662
33.0906
33.1143
33.1371
33.1592
33.1805
33.201
33.2207
33.2397
33.2579
33.2753
33.292
33.3079
33.323
33.3374
33.351
33.3638
33.3759
33.3872
33.3978
33.4076
33.4166
33.4249
33.4325
33.4392
33.4453
33.4505
33.455
33.4588
33.4618
33.4641
33.4656
33.4663
7.69654
7.6927
7.68501
7.67356
7.65841
7.63968
7.61749
7.59201
7.56341
7.53188
7.49763
7.46088
7.42187
7.38083
7.33801
7.29364
7.24799
7.20128
7.15378
7.10572
7.05732
7.00883
6.96047
6.91245
6.86498
6.81827
6.77252
6.72792
6.68464
6.64286
6.60276
6.56449
6.52821
6.49407
6.46221
6.43276
6.40586
6.38162
6.36017
6.34161
6.32605
6.31359
6.30432
6.29832
6.29568
6.29648
6.30078
6.30864
6.32013
6.3353
6.35419
6.37684
6.40329
6.43357
6.4677
6.50569
6.54757
6.59334
6.64301
6.69656
6.75399
6.8153
6.88046
6.94945
7.02225
7.09882
7.17915
7.26318
7.35088
7.4422
7.53711
7.63554
7.73746
7.84279
7.95149
8.0635
8.17875
8.29718
8.41871
8.54329
8.67083
8.80127
8.93454
9.07054
9.20922
9.35049
9.49427
9.64048
9.78905
9.93989
10.0929
10.2481
10.4053
10.5644
10.7254
10.8882
11.0527
11.2189
11.3866
11.5558
11.7264
11.8983
12.0715
12.2459
12.4214
12.5978
12.7753
12.9536
13.1328
13.3127
13.4932
13.6744
13.8561
14.0383
14.221
14.4039
14.5872
14.7707
14.9544
15.1382
15.322
15.5059
15.6897
15.8734
16.057
16.2404
16.4235
16.6064
16.789
16.9711
17.1529
17.3342
17.515
17.6953
17.875
18.0541
18.2326
18.4104
18.5876
18.764
18.9396
19.1144
19.2885
19.4617
19.634
19.8055
19.976
20.1456
20.3143
20.482
20.6487
20.8144
20.9791
21.1427
21.3053
21.4668
21.6273
21.7866
21.9448
22.102
22.258
22.4128
22.5665
22.7191
22.8705
23.0207
23.1697
23.3176
23.4642
23.6097
23.754
23.8971
24.039
24.1796
24.3191
24.4573
24.5943
24.7302
24.8647
24.9981
25.1303
25.2612
25.391
25.5195
25.6468
25.7728
25.8977
26.0214
26.1438
26.2651
26.3851
26.5039
26.6216
26.738
26.8533
26.9674
27.0802
27.192
27.3025
27.4118
27.52
27.6271
27.7329
27.8376
27.9412
28.0436
28.1449
28.245
28.344
28.4419
28.5387
28.6344
28.7289
28.8223
28.9147
29.0059
29.0961
29.1851
29.2731
29.3601
29.4459
29.5307
29.6145
29.6971
29.7788
29.8594
29.939
30.0175
30.095
30.1715
30.247
30.3215
30.395
30.4674
30.5389
30.6094
30.679
30.7475
30.8151
30.8817
30.9473
31.012
31.0758
31.1386
31.2004
31.2613
31.3213
31.3804
31.4385
31.4957
31.552
31.6074
31.6619
31.7155
31.7682
31.82
31.8709
31.921
31.9701
32.0184
32.0658
32.1124
32.158
32.2029
32.2468
32.2899
32.3322
32.3736
32.4142
32.4539
32.4928
32.5309
32.5682
32.6046
32.6402
32.675
32.7089
32.7421
32.7744
32.806
32.8367
32.8666
32.8958
32.9241
32.9516
32.9784
33.0043
33.0295
33.0539
33.0775
33.1003
33.1224
33.1436
33.1641
33.1838
33.2028
33.2209
33.2383
33.255
33.2708
33.2859
33.3003
33.3139
33.3267
33.3387
33.35
33.3606
33.3704
33.3794
33.3877
33.3952
33.402
33.408
33.4132
33.4177
33.4215
33.4245
33.4268
33.4283
33.429
7.60313
7.5994
7.59193
7.5808
7.56608
7.54786
7.52628
7.50148
7.47363
7.44291
7.40951
7.37366
7.33556
7.29545
7.25356
7.21014
7.16542
7.11965
7.07306
7.0259
6.97839
6.93077
6.88326
6.83608
6.78944
6.74354
6.69859
6.65478
6.61229
6.5713
6.53197
6.49448
6.45897
6.4256
6.3945
6.36582
6.33968
6.3162
6.2955
6.27769
6.26288
6.25115
6.24261
6.23734
6.23542
6.23692
6.24192
6.25048
6.26266
6.2785
6.29806
6.32138
6.34849
6.37941
6.41419
6.45283
6.49534
6.54174
6.59203
6.6462
6.70425
6.76617
6.83194
6.90153
6.97493
7.0521
7.13302
7.21764
7.30592
7.39783
7.49331
7.59232
7.69481
7.80071
7.90998
8.02254
8.13835
8.25733
8.37941
8.50453
8.63261
8.76359
8.89738
9.03391
9.1731
9.31488
9.45917
9.60588
9.75494
9.90627
10.0598
10.2154
10.3731
10.5327
10.6941
10.8574
11.0223
11.1889
11.3571
11.5267
11.6977
11.8701
12.0436
12.2184
12.3942
12.5711
12.7489
12.9276
13.1071
13.2873
13.4682
13.6497
13.8318
14.0143
14.1972
14.3805
14.564
14.7478
14.9317
15.1158
15.2999
15.484
15.668
15.852
16.0358
16.2194
16.4027
16.5858
16.7685
16.9509
17.1328
17.3143
17.4952
17.6757
17.8555
18.0348
18.2134
18.3914
18.5686
18.7451
18.9208
19.0958
19.2699
19.4432
19.6156
19.7871
19.9578
20.1274
20.2962
20.4639
20.6307
20.7964
20.9611
21.1248
21.2874
21.449
21.6094
21.7688
21.927
22.0841
22.2401
22.395
22.5487
22.7012
22.8526
23.0028
23.1518
23.2997
23.4463
23.5918
23.736
23.8791
24.0209
24.1615
24.301
24.4391
24.5761
24.7119
24.8464
24.9798
25.1119
25.2428
25.3724
25.5009
25.6281
25.7541
25.8789
26.0025
26.1249
26.2461
26.3661
26.4848
26.6024
26.7188
26.834
26.948
27.0608
27.1724
27.2829
27.3921
27.5002
27.6072
27.713
27.8176
27.9211
28.0234
28.1246
28.2247
28.3236
28.4214
28.5181
28.6137
28.7081
28.8015
28.8938
28.9849
29.075
29.164
29.2519
29.3387
29.4245
29.5092
29.5929
29.6755
29.7571
29.8376
29.9171
29.9955
30.073
30.1494
30.2248
30.2992
30.3726
30.445
30.5164
30.5869
30.6563
30.7248
30.7923
30.8588
30.9244
30.989
31.0527
31.1154
31.1772
31.238
31.2979
31.3569
31.415
31.4722
31.5284
31.5837
31.6382
31.6917
31.7443
31.7961
31.8469
31.8969
31.946
31.9942
32.0416
32.0881
32.1337
32.1784
32.2224
32.2654
32.3076
32.349
32.3895
32.4292
32.4681
32.5061
32.5433
32.5797
32.6152
32.65
32.6839
32.717
32.7493
32.7808
32.8115
32.8414
32.8705
32.8988
32.9263
32.953
32.9789
33.0041
33.0284
33.052
33.0748
33.0968
33.118
33.1385
33.1582
33.1771
33.1952
33.2126
33.2292
33.2451
33.2602
33.2745
33.288
33.3008
33.3129
33.3242
33.3347
33.3445
33.3535
33.3617
33.3693
33.376
33.382
33.3873
33.3918
33.3955
33.3985
33.4008
33.4023
33.403
7.50704
7.50339
7.49606
7.48514
7.47069
7.45281
7.43163
7.40728
7.37992
7.34974
7.31693
7.28168
7.24422
7.20476
7.16355
7.12081
7.07679
7.03172
6.98584
6.93939
6.8926
6.84569
6.7989
6.75244
6.70652
6.66135
6.61713
6.57405
6.5323
6.49205
6.45348
6.41675
6.38201
6.34941
6.3191
6.2912
6.26585
6.24316
6.22326
6.20624
6.19221
6.18128
6.17352
6.16903
6.16788
6.17015
6.17591
6.18523
6.19815
6.21473
6.23503
6.25907
6.28689
6.31853
6.35401
6.39334
6.43655
6.48363
6.5346
6.58945
6.64817
6.71075
6.77717
6.84742
6.92147
6.99928
7.08084
7.16609
7.25501
7.34754
7.44365
7.54328
7.64638
7.75289
7.86276
7.97593
8.09233
8.2119
8.33456
8.46026
8.58892
8.72046
8.85481
8.9919
9.13164
9.27396
9.41879
9.56603
9.71561
9.86746
10.0215
10.1776
10.3357
10.4958
10.6578
10.8215
10.9869
11.154
11.3226
11.4926
11.6641
11.8368
12.0108
12.186
12.3622
12.5394
12.7176
12.8967
13.0765
13.2571
13.4384
13.6202
13.8025
13.9854
14.1686
14.3521
14.536
14.72
14.9042
15.0885
15.2728
15.4572
15.6415
15.8256
16.0097
16.1935
16.377
16.5603
16.7432
16.9257
17.1078
17.2894
17.4705
17.6511
17.8311
18.0105
18.1892
18.3672
18.5446
18.7212
18.897
19.072
19.2462
19.4196
19.5921
19.7636
19.9343
20.104
20.2728
20.4406
20.6074
20.7731
20.9379
21.1015
21.2642
21.4257
21.5862
21.7455
21.9037
22.0608
22.2168
22.3716
22.5253
22.6778
22.8292
22.9793
23.1283
23.2761
23.4227
23.5681
23.7123
23.8553