/*--------------------------------*- C++ -*----------------------------------*\
| =========                 |                                                 |
| \\      /  F ield         | OpenFOAM: The Open Source CFD Toolbox           |
|  \\    /   O peration     | Version:  2212                                  |
|   \\  /    A nd           | Website:  www.openfoam.com                      |
|    \\/     M anipulation  |                                                 |
\*---------------------------------------------------------------------------*/
FoamFile
{
    version     2.0;
    format      ascii;
    arch        "LSB;label=32;scalar=64";
    class       volScalarField;
    location    "270";
    object      p_rgh;
}
// * * * * * * * * * * * * * * * * * * * * * * * * * * * * * * * * * * * * * //

dimensions      [1 -1 -2 0 0 0 0];

internalField   nonuniform List<scalar> 
204800
(
8.05952
8.05581
8.04893
8.03837
8.02454
8.00723
7.9867
7.9629
7.93604
7.90615
7.87344
7.83801
7.80007
7.75978
7.71737
7.67305
7.62704
7.57959
7.53095
7.48137
7.43111
7.38041
7.32955
7.27875
7.22827
7.17836
7.12922
7.0811
7.0342
6.98871
6.94485
6.90278
6.86269
6.82475
6.78909
6.75589
6.72527
6.69736
6.67229
6.65018
6.63114
6.61526
6.60265
6.59338
6.58754
6.58521
6.58645
6.59133
6.59991
6.61222
6.62833
6.64825
6.67204
6.69971
6.73129
6.7668
6.80624
6.84962
6.89695
6.94821
7.00341
7.06252
7.12554
7.19243
7.26318
7.33775
7.4161
7.49821
7.58403
7.67352
7.76663
7.8633
7.9635
8.06716
8.17422
8.28463
8.39832
8.51523
8.63529
8.75843
8.88459
9.01368
9.14564
9.28038
9.41785
9.55794
9.7006
9.84573
9.99326
10.1431
10.2952
10.4494
10.6058
10.7641
10.9243
11.0864
11.2502
11.4157
11.5828
11.7515
11.9216
12.093
12.2658
12.4397
12.6148
12.791
12.9682
13.1463
13.3253
13.505
13.6855
13.8666
14.0483
14.2305
14.4132
14.5963
14.7797
14.9634
15.1473
15.3313
15.5155
15.6996
15.8838
16.0679
16.252
16.4358
16.6195
16.8029
16.9859
17.1687
17.3511
17.533
17.7145
17.8955
18.0759
18.2558
18.4351
18.6137
18.7916
18.9689
19.1454
19.3211
19.496
19.6702
19.8435
20.0159
20.1874
20.358
20.5277
20.6964
20.8642
21.0309
21.1967
21.3614
21.5251
21.6877
21.8492
22.0097
22.1691
22.3273
22.4845
22.6405
22.7954
22.9491
23.1017
23.2531
23.4033
23.5523
23.7002
23.8469
23.9924
24.1367
24.2797
24.4216
24.5623
24.7017
24.84
24.977
25.1128
25.2474
25.3807
25.5129
25.6438
25.7735
25.902
26.0293
26.1554
26.2802
26.4038
26.5263
26.6475
26.7675
26.8863
27.0039
27.1203
27.2355
27.3496
27.4624
27.5741
27.6845
27.7939
27.902
28.009
28.1148
28.2194
28.3229
28.4253
28.5265
28.6265
28.7255
28.8233
28.92
29.0155
29.11
29.2033
29.2956
29.3867
29.4768
29.5658
29.6536
29.7404
29.8262
29.9109
29.9945
30.077
30.1585
30.239
30.3184
30.3968
30.4742
30.5505
30.6259
30.7002
30.7735
30.8458
30.9171
30.9874
31.0568
31.1251
31.1925
31.2589
31.3244
31.3888
31.4524
31.5149
31.5766
31.6373
31.697
31.7558
31.8137
31.8707
31.9267
31.9819
32.0361
32.0894
32.1418
32.1933
32.244
32.2937
32.3425
32.3905
32.4376
32.4838
32.5292
32.5737
32.6173
32.6601
32.702
32.7431
32.7833
32.8226
32.8612
32.8989
32.9357
32.9718
33.007
33.0413
33.0749
33.1076
33.1395
33.1706
33.2009
33.2304
33.2591
33.287
33.314
33.3403
33.3658
33.3904
33.4143
33.4374
33.4597
33.4812
33.502
33.5219
33.5411
33.5595
33.5771
33.5939
33.61
33.6253
33.6398
33.6535
33.6665
33.6787
33.6902
33.7008
33.7107
33.7199
33.7282
33.7359
33.7427
33.7488
33.7541
33.7587
33.7625
33.7655
33.7678
33.7693
33.7701
8.08205
8.07802
8.07025
8.05848
8.04302
8.02377
8.00101
7.97476
7.94527
7.91266
7.8772
7.83904
7.79845
7.75564
7.71086
7.66436
7.61638
7.56717
7.51699
7.46609
7.41471
7.36309
7.31148
7.2601
7.20917
7.15892
7.10957
7.0613
7.01432
6.96882
6.92498
6.88297
6.84296
6.80511
6.76956
6.73647
6.70597
6.67818
6.65323
6.63123
6.61229
6.59652
6.584
6.57482
6.56906
6.56681
6.56812
6.57306
6.58168
6.59404
6.61018
6.63013
6.65394
6.68162
6.71321
6.74871
6.78813
6.8315
6.87879
6.93002
6.98518
7.04424
7.10719
7.17402
7.24469
7.31918
7.39745
7.47946
7.56518
7.65455
7.74754
7.8441
7.94416
8.04768
8.1546
8.26485
8.37838
8.49513
8.61502
8.73798
8.86395
8.99285
9.12462
9.25916
9.39642
9.5363
9.67874
9.82365
9.97095
10.1206
10.2724
10.4264
10.5825
10.7406
10.9005
11.0623
11.2259
11.3912
11.558
11.7264
11.8962
12.0673
12.2398
12.4135
12.5883
12.7642
12.9411
13.1189
13.2976
13.477
13.6572
13.838
14.0194
14.2013
14.3837
14.5664
14.7495
14.9329
15.1164
15.3002
15.484
15.6679
15.8517
16.0355
16.2192
16.4027
16.5861
16.7691
16.9519
17.1343
17.3164
17.498
17.6792
17.8598
18.0399
18.2195
18.3984
18.5767
18.7543
18.9312
19.1074
19.2828
19.4575
19.6313
19.8042
19.9763
20.1476
20.3179
20.4872
20.6556
20.8231
20.9895
21.155
21.3194
21.4828
21.6451
21.8063
21.9665
22.1256
22.2835
22.4404
22.5961
22.7507
22.9041
23.0564
23.2075
23.3575
23.5062
23.6538
23.8002
23.9454
24.0895
24.2323
24.3739
24.5143
24.6534
24.7914
24.9282
25.0637
25.1981
25.3312
25.4631
25.5937
25.7232
25.8514
25.9785
26.1043
26.2289
26.3523
26.4745
26.5955
26.7152
26.8338
26.9512
27.0674
27.1824
27.2962
27.4088
27.5203
27.6305
27.7396
27.8475
27.9543
28.0599
28.1643
28.2676
28.3698
28.4708
28.5707
28.6694
28.767
28.8635
28.9589
29.0532
29.1463
29.2384
29.3294
29.4192
29.508
29.5958
29.6824
29.768
29.8525
29.9359
30.0183
30.0997
30.18
30.2592
30.3375
30.4147
30.4909
30.5661
30.6402
30.7134
30.7856
30.8567
30.9269
30.9961
31.0643
31.1316
31.1979
31.2632
31.3275
31.3909
31.4534
31.5149
31.5754
31.6351
31.6938
31.7515
31.8084
31.8643
31.9193
31.9735
32.0267
32.079
32.1304
32.1809
32.2306
32.2793
32.3272
32.3742
32.4203
32.4656
32.51
32.5535
32.5962
32.6381
32.679
32.7192
32.7585
32.7969
32.8345
32.8713
32.9073
32.9424
32.9767
33.0102
33.0429
33.0747
33.1058
33.136
33.1654
33.194
33.2218
33.2488
33.2751
33.3005
33.3251
33.349
33.372
33.3943
33.4157
33.4364
33.4563
33.4755
33.4938
33.5114
33.5282
33.5442
33.5595
33.574
33.5877
33.6006
33.6128
33.6242
33.6349
33.6448
33.6539
33.6622
33.6698
33.6767
33.6827
33.6881
33.6926
33.6964
33.6994
33.7017
33.7032
33.704
8.05945
8.05546
8.04773
8.03606
8.02072
8.00161
7.97902
7.95296
7.9237
7.89133
7.85613
7.81824
7.77793
7.73541
7.69093
7.64472
7.59705
7.54814
7.49826
7.44766
7.39657
7.34524
7.29391
7.2428
7.19214
7.14215
7.09304
7.04502
6.99828
6.953
6.90938
6.86758
6.82778
6.79013
6.75477
6.72187
6.69155
6.66394
6.63916
6.61733
6.59856
6.58294
6.57057
6.56155
6.55594
6.55383
6.55528
6.56036
6.56912
6.58161
6.59788
6.61796
6.6419
6.6697
6.70141
6.73703
6.77658
6.82005
6.86747
6.91881
6.97407
7.03324
7.09631
7.16324
7.23402
7.30861
7.38698
7.46909
7.5549
7.64438
7.73746
7.83411
7.93427
8.03788
8.14488
8.25523
8.36885
8.48568
8.60565
8.7287
8.85475
8.98373
9.11557
9.25019
9.38752
9.52748
9.66999
9.81497
9.96234
10.112
10.2639
10.418
10.5741
10.7323
10.8923
11.0542
11.2178
11.3831
11.55
11.7184
11.8882
12.0595
12.232
12.4057
12.5805
12.7565
12.9334
13.1112
13.2899
13.4694
13.6496
13.8305
14.0119
14.1938
14.3762
14.559
14.7421
14.9255
15.1091
15.2928
15.4766
15.6605
15.8444
16.0282
16.2119
16.3954
16.5788
16.7618
16.9446
17.127
17.3091
17.4907
17.6719
17.8525
18.0326
18.2122
18.3911
18.5694
18.747
18.9239
19.1001
19.2755
19.4501
19.6239
19.7968
19.9689
20.1401
20.3104
20.4797
20.6481
20.8155
20.9819
21.1474
21.3117
21.4751
21.6374
21.7986
21.9588
22.1178
22.2757
22.4326
22.5882
22.7428
22.8962
23.0484
23.1995
23.3494
23.4982
23.6457
23.7921
23.9373
24.0812
24.224
24.3656
24.506
24.6451
24.783
24.9198
25.0553
25.1896
25.3226
25.4545
25.5851
25.7146
25.8428
25.9698
26.0955
26.2201
26.3435
26.4656
26.5866
26.7063
26.8249
26.9422
27.0583
27.1733
27.2871
27.3997
27.5111
27.6213
27.7304
27.8382
27.945
28.0505
28.1549
28.2582
28.3603
28.4613
28.5611
28.6598
28.7574
28.8539
28.9492
29.0435
29.1366
29.2286
29.3195
29.4094
29.4981
29.5858
29.6724
29.758
29.8424
29.9259
30.0082
30.0895
30.1698
30.2491
30.3273
30.4045
30.4806
30.5558
30.6299
30.703
30.7752
30.8463
30.9165
30.9856
31.0538
31.1211
31.1873
31.2526
31.3169
31.3803
31.4427
31.5042
31.5647
31.6243
31.683
31.7408
31.7976
31.8535
31.9085
31.9626
32.0158
32.0681
32.1195
32.17
32.2196
32.2683
32.3162
32.3632
32.4093
32.4545
32.4989
32.5424
32.5851
32.6269
32.6679
32.708
32.7473
32.7857
32.8233
32.8601
32.896
32.9311
32.9654
32.9989
33.0315
33.0634
33.0944
33.1246
33.154
33.1826
33.2104
33.2374
33.2636
33.289
33.3137
33.3375
33.3605
33.3828
33.4042
33.4249
33.4448
33.4639
33.4823
33.4999
33.5167
33.5327
33.5479
33.5624
33.5761
33.5891
33.6012
33.6126
33.6233
33.6332
33.6423
33.6506
33.6582
33.6651
33.6711
33.6764
33.681
33.6848
33.6878
33.6901
33.6916
33.6924
8.04699
8.04283
8.03467
8.0224
8.00624
7.98619
7.9625
7.93524
7.90469
7.871
7.83445
7.79524
7.75366
7.70992
7.66431
7.61707
7.56848
7.51878
7.46822
7.41705
7.36552
7.31386
7.26229
7.21104
7.16032
7.11034
7.0613
7.01339
6.96681
6.92173
6.87833
6.83678
6.79723
6.75984
6.72476
6.69213
6.66208
6.63474
6.61023
6.58867
6.57015
6.55478
6.54266
6.53386
6.52848
6.52659
6.52825
6.53353
6.54249
6.55516
6.57161
6.59187
6.61596
6.64393
6.67578
6.71154
6.75122
6.79483
6.84236
6.89382
6.94919
7.00846
7.07162
7.13863
7.20949
7.28415
7.36259
7.44477
7.53064
7.62016
7.71328
7.80997
7.91015
8.01379
8.12082
8.23118
8.3448
8.46163
8.5816
8.70464
8.83068
8.95964
9.09145
9.22605
9.36334
9.50325
9.64572
9.79064
9.93796
10.0876
10.2394
10.3934
10.5495
10.7075
10.8675
11.0292
11.1928
11.358
11.5248
11.6931
11.8628
12.0339
12.2063
12.3799
12.5546
12.7304
12.9072
13.0849
13.2635
13.4428
13.6228
13.8035
13.9848
14.1666
14.3488
14.5314
14.7144
14.8976
15.081
15.2645
15.4482
15.6319
15.8156
15.9992
16.1827
16.3661
16.5492
16.7321
16.9146
17.0969
17.2787
17.4601
17.6411
17.8215
18.0014
18.1808
18.3595
18.5376
18.715
18.8917
19.0676
19.2428
19.4172
19.5908
19.7635
19.9354
20.1063
20.2764
20.4455
20.6137
20.7809
20.9471
21.1123
21.2765
21.4396
21.6017
21.7627
21.9226
22.0815
22.2392
22.3958
22.5512
22.7056
22.8588
23.0108
23.1617
23.3114
23.4599
23.6072
23.7534
23.8984
24.0421
24.1847
24.3261
24.4662
24.6051
24.7429
24.8794
25.0147
25.1488
25.2817
25.4133
25.5438
25.673
25.801
25.9278
26.0534
26.1778
26.3009
26.4229
26.5437
26.6632
26.7816
26.8987
27.0147
27.1295
27.2431
27.3555
27.4667
27.5767
27.6856
27.7933
27.8999
28.0053
28.1095
28.2126
28.3146
28.4154
28.515
28.6136
28.711
28.8073
28.9025
28.9966
29.0896
29.1814
29.2722
29.3619
29.4505
29.538
29.6245
29.7099
29.7942
29.8775
29.9597
30.0409
30.1211
30.2002
30.2782
30.3553
30.4313
30.5063
30.5804
30.6534
30.7254
30.7964
30.8664
30.9355
31.0036
31.0707
31.1368
31.202
31.2662
31.3294
31.3918
31.4531
31.5136
31.5731
31.6316
31.6893
31.746
31.8018
31.8567
31.9107
31.9638
32.016
32.0673
32.1177
32.1673
32.2159
32.2637
32.3106
32.3566
32.4018
32.4461
32.4895
32.5321
32.5739
32.6148
32.6548
32.694
32.7324
32.7699
32.8066
32.8425
32.8775
32.9118
32.9452
32.9778
33.0096
33.0405
33.0707
33.1
33.1286
33.1563
33.1833
33.2095
33.2348
33.2594
33.2832
33.3062
33.3284
33.3498
33.3705
33.3903
33.4094
33.4277
33.4453
33.462
33.478
33.4932
33.5077
33.5214
33.5343
33.5465
33.5578
33.5685
33.5783
33.5874
33.5958
33.6033
33.6102
33.6162
33.6215
33.6261
33.6299
33.6329
33.6352
33.6367
33.6374
8.00288
7.99881
7.99077
7.97872
7.96283
7.94312
7.91982
7.89301
7.86295
7.82979
7.79379
7.75516
7.71416
7.67102
7.62601
7.57937
7.53136
7.48224
7.43225
7.38164
7.33065
7.27951
7.22845
7.17769
7.12745
7.07794
7.02936
6.98189
6.93574
6.89108
6.84809
6.80693
6.76777
6.73076
6.69605
6.66378
6.63409
6.60709
6.58292
6.56168
6.54348
6.52843
6.51661
6.50812
6.50304
6.50143
6.50338
6.50894
6.51817
6.53112
6.54783
6.56835
6.5927
6.62092
6.65302
6.68903
6.72895
6.77279
6.82056
6.87225
6.92785
6.98735
7.05073
7.11798
7.18905
7.26393
7.34259
7.42497
7.51105
7.60078
7.69412
7.791
7.89139
7.99523
8.10245
8.213
8.32682
8.44384
8.564
8.68722
8.81344
8.94258
9.07457
9.20934
9.3468
9.48688
9.62951
9.7746
9.92207
10.0718
10.2238
10.378
10.5342
10.6924
10.8525
11.0144
11.1781
11.3434
11.5103
11.6787
11.8486
12.0198
12.1923
12.366
12.5409
12.7168
12.8936
13.0715
13.2501
13.4295
13.6097
13.7904
13.9718
14.1536
14.3359
14.5186
14.7016
14.8849
15.0684
15.252
15.4357
15.6194
15.8032
15.9868
16.1704
16.3538
16.5369
16.7199
16.9025
17.0847
17.2666
17.448
17.629
17.8095
17.9894
18.1687
18.3474
18.5255
18.7029
18.8796
19.0556
19.2308
19.4051
19.5787
19.7514
19.9233
20.0943
20.2643
20.4334
20.6016
20.7687
20.9349
21.1001
21.2642
21.4274
21.5894
21.7504
21.9103
22.0691
22.2267
22.3833
22.5387
22.693
22.8462
22.9982
23.149
23.2987
23.4471
23.5944
23.7405
23.8855
24.0292
24.1717
24.313
24.4531
24.592
24.7297
24.8662
25.0014
25.1354
25.2683
25.3999
25.5303
25.6594
25.7874
25.9141
26.0397
26.164
26.2871
26.409
26.5297
26.6492
26.7675
26.8846
27.0005
27.1152
27.2288
27.3411
27.4523
27.5623
27.6711
27.7787
27.8852
27.9906
28.0948
28.1978
28.2997
28.4004
28.5001
28.5986
28.6959
28.7922
28.8873
28.9813
29.0742
29.1661
29.2568
29.3464
29.435
29.5225
29.6089
29.6942
29.7785
29.8617
29.9439
30.025
30.1051
30.1842
30.2622
30.3392
30.4152
30.4901
30.5641
30.6371
30.709
30.78
30.85
30.919
30.987
31.0541
31.1202
31.1853
31.2495
31.3127
31.375
31.4363
31.4967
31.5561
31.6147
31.6723
31.729
31.7848
31.8396
31.8936
31.9466
31.9988
32.0501
32.1004
32.1499
32.1986
32.2463
32.2932
32.3392
32.3843
32.4286
32.472
32.5145
32.5562
32.5971
32.6371
32.6763
32.7146
32.7521
32.7888
32.8247
32.8597
32.8939
32.9273
32.9599
32.9916
33.0226
33.0527
33.082
33.1106
33.1383
33.1652
33.1914
33.2167
33.2413
33.265
33.288
33.3102
33.3316
33.3522
33.3721
33.3912
33.4095
33.427
33.4437
33.4597
33.4749
33.4894
33.5031
33.516
33.5281
33.5395
33.5501
33.56
33.569
33.5774
33.5849
33.5918
33.5978
33.6031
33.6077
33.6114
33.6145
33.6167
33.6182
33.619
7.96235
7.95822
7.95003
7.93777
7.9216
7.90157
7.87789
7.85069
7.82021
7.78663
7.75021
7.71117
7.6698
7.62632
7.58101
7.53413
7.48594
7.43669
7.38663
7.33601
7.28507
7.23403
7.18313
7.13259
7.0826
7.03337
6.98511
6.938
6.89222
6.84795
6.80537
6.76463
6.7259
6.68932
6.65504
6.6232
6.59394
6.56736
6.54361
6.52278
6.50499
6.49033
6.4789
6.47079
6.46607
6.46483
6.46713
6.47303
6.4826
6.49587
6.51291
6.53373
6.55839
6.5869
6.6193
6.65559
6.69579
6.7399
6.78793
6.83988
6.89573
6.95547
7.01909
7.08657
7.15787
7.23298
7.31184
7.39444
7.48072
7.57065
7.66418
7.76126
7.86183
7.96584
8.07324
8.18395
8.29793
8.41511
8.53542
8.65879
8.78515
8.91442
9.04655
9.18144
9.31902
9.45922
9.60195
9.74715
9.89472
10.0446
10.1967
10.3509
10.5072
10.6654
10.8256
10.9876
11.1513
11.3167
11.4836
11.6521
11.822
11.9932
12.1658
12.3395
12.5144
12.6903
12.8672
13.045
13.2236
13.403
13.5831
13.7639
13.9452
14.127
14.3093
14.492
14.6749
14.8582
15.0416
15.2251
15.4088
15.5925
15.7761
15.9597
16.1432
16.3265
16.5096
16.6924
16.8749
17.0571
17.2389
17.4202
17.6011
17.7815
17.9613
18.1405
18.3191
18.4971
18.6744
18.8509
19.0268
19.2018
19.3761
19.5495
19.7221
19.8938
20.0646
20.2346
20.4035
20.5715
20.7386
20.9046
21.0696
21.2336
21.3966
21.5585
21.7193
21.879
22.0377
22.1952
22.3516
22.5069
22.661
22.814
22.9659
23.1165
23.266
23.4144
23.5615
23.7074
23.8522
23.9958
24.1381
24.2793
24.4192
24.5579
24.6955
24.8318
24.9669
25.1007
25.2334
25.3648
25.4951
25.6241
25.7519
25.8785
26.0038
26.128
26.251
26.3727
26.4932
26.6126
26.7307
26.8477
26.9634
27.078
27.1914
27.3036
27.4146
27.5244
27.6331
27.7406
27.847
27.9522
28.0562
28.1591
28.2608
28.3615
28.4609
28.5593
28.6565
28.7526
28.8476
28.9415
29.0343
29.126
29.2166
29.3061
29.3945
29.4818
29.5681
29.6533
29.7375
29.8206
29.9026
29.9837
30.0636
30.1426
30.2205
30.2973
30.3732
30.4481
30.5219
30.5948
30.6666
30.7375
30.8074
30.8763
30.9442
31.0111
31.0771
31.1422
31.2062
31.2693
31.3315
31.3927
31.453
31.5124
31.5708
31.6284
31.685
31.7406
31.7954
31.8493
31.9023
31.9543
32.0055
32.0558
32.1052
32.1538
32.2014
32.2482
32.2942
32.3392
32.3834
32.4268
32.4692
32.5109
32.5517
32.5916
32.6307
32.669
32.7065
32.7431
32.7789
32.8138
32.848
32.8813
32.9138
32.9455
32.9764
33.0065
33.0358
33.0643
33.092
33.1189
33.145
33.1703
33.1948
33.2185
33.2414
33.2636
33.285
33.3056
33.3254
33.3444
33.3627
33.3802
33.3969
33.4129
33.4281
33.4425
33.4561
33.469
33.4811
33.4925
33.5031
33.5129
33.522
33.5303
33.5379
33.5447
33.5507
33.556
33.5606
33.5643
33.5674
33.5696
33.5711
33.5719
7.89926
7.89524
7.88723
7.87527
7.85947
7.8399
7.81676
7.79017
7.76035
7.72749
7.69182
7.65357
7.61298
7.57031
7.52581
7.47973
7.43233
7.38385
7.33456
7.28468
7.23446
7.18413
7.13391
7.08403
7.03469
6.9861
6.93846
6.89195
6.84677
6.80308
6.76107
6.72089
6.68271
6.64667
6.61292
6.5816
6.55285
6.52678
6.50352
6.48317
6.46586
6.45166
6.44069
6.43303
6.42876
6.42795
6.43067
6.437
6.44697
6.46065
6.47809
6.49931
6.52436
6.55325
6.58603
6.62269
6.66326
6.70774
6.75614
6.80844
6.86465
6.92475
6.98872
7.05654
7.12818
7.20362
7.28283
7.36576
7.45237
7.54263
7.63648
7.73388
7.83477
7.9391
8.0468
8.15783
8.27212
8.3896
8.51021
8.63387
8.76053
8.89009
9.0225
9.15767
9.29554
9.43601
9.57902
9.72448
9.87231
10.0224
10.1748
10.3293
10.4858
10.6443
10.8047
10.9669
11.1308
11.2964
11.4636
11.6323
11.8024
11.9739
12.1466
12.3205
12.4956
12.6717
12.8487
13.0267
13.2055
13.3851
13.5654
13.7463
13.9278
14.1097
14.2921
14.4749
14.658
14.8414
15.0249
15.2086
15.3923
15.5761
15.7599
15.9436
16.1272
16.3105
16.4937
16.6766
16.8592
17.0414
17.2233
17.4047
17.5856
17.766
17.9459
18.1252
18.3038
18.4818
18.6591
18.8357
19.0116
19.1867
19.3609
19.5344
19.707
19.8787
20.0495
20.2195
20.3884
20.5564
20.7235
20.8895
21.0545
21.2185
21.3814
21.5433
21.7041
21.8638
22.0224
22.1799
22.3363
22.4916
22.6457
22.7986
22.9504
23.101
23.2505
23.3988
23.5459
23.6918
23.8365
23.98
24.1223
24.2634
24.4033
24.542
24.6794
24.8157
24.9507
25.0845
25.2171
25.3485
25.4787
25.6076
25.7354
25.8619
25.9872
26.1113
26.2342
26.3559
26.4763
26.5956
26.7137
26.8306
26.9463
27.0607
27.1741
27.2862
27.3971
27.5069
27.6155
27.723
27.8292
27.9344
28.0383
28.1412
28.2428
28.3434
28.4428
28.5411
28.6382
28.7343
28.8292
28.923
29.0157
29.1073
29.1979
29.2873
29.3757
29.463
29.5492
29.6343
29.7184
29.8014
29.8834
29.9644
30.0443
30.1231
30.201
30.2778
30.3536
30.4284
30.5022
30.575
30.6468
30.7176
30.7874
30.8562
30.9241
30.991
31.0569
31.1219
31.1859
31.249
31.3111
31.3723
31.4325
31.4918
31.5502
31.6077
31.6642
31.7199
31.7746
31.8284
31.8813
31.9334
31.9845
32.0348
32.0841
32.1326
32.1802
32.227
32.2729
32.3179
32.362
32.4053
32.4478
32.4894
32.5301
32.5701
32.6091
32.6474
32.6848
32.7214
32.7571
32.7921
32.8262
32.8595
32.892
32.9236
32.9545
32.9846
33.0138
33.0423
33.0699
33.0968
33.1229
33.1481
33.1726
33.1963
33.2192
33.2414
33.2627
33.2833
33.3031
33.3221
33.3404
33.3579
33.3746
33.3905
33.4057
33.4201
33.4337
33.4466
33.4587
33.47
33.4806
33.4905
33.4995
33.5078
33.5154
33.5222
33.5282
33.5335
33.538
33.5418
33.5448
33.5471
33.5486
33.5494
7.83619
7.83218
7.82418
7.81224
7.79647
7.77696
7.75388
7.72737
7.69765
7.6649
7.62937
7.59127
7.55087
7.5084
7.46413
7.41831
7.37119
7.32303
7.27407
7.22456
7.17473
7.12482
7.07505
7.02563
6.97677
6.92869
6.88157
6.8356
6.79097
6.74784
6.7064
6.6668
6.62919
6.59373
6.56057
6.52983
6.50164
6.47614
6.45344
6.43365
6.41688
6.40323
6.39279
6.38565
6.38189
6.38158
6.3848
6.39161
6.40206
6.41621
6.4341
6.45577
6.48126
6.5106
6.5438
6.58088
6.62187
6.66676
6.71556
6.76826
6.82486
6.88534
6.94969
7.01788
7.0899
7.1657
7.24527
7.32855
7.41551
7.50611
7.6003
7.69803
7.79925
7.9039
8.01193
8.12328
8.23787
8.35566
8.47656
8.60052
8.72746
8.85731
8.99
9.12544
9.26357
9.40431
9.54757
9.69328
9.84136
9.99172
10.1443
10.299
10.4557
10.6145
10.7751
10.9375
11.1016
11.2674
11.4348
11.6036
11.7739
11.9455
12.1184
12.2925
12.4677
12.6439
12.8211
12.9992
13.1782
13.3579
13.5383
13.7193
13.9008
14.0829
14.2654
14.4483
14.6314
14.8148
14.9984
15.1822
15.366
15.5498
15.7336
15.9173
16.1009
16.2844
16.4675
16.6505
16.833
17.0153
17.1971
17.3785
17.5594
17.7398
17.9197
18.0989
18.2775
18.4555
18.6328
18.8093
18.9851
19.1602
19.3344
19.5078
19.6803
19.852
20.0228
20.1926
20.3615
20.5294
20.6964
20.8623
21.0272
21.1911
21.354
21.5158
21.6765
21.8361
21.9946
22.152
22.3083
22.4634
22.6174
22.7703
22.9219
23.0725
23.2218
23.37
23.5169
23.6627
23.8073
23.9507
24.0929
24.2339
24.3736
24.5122
24.6495
24.7856
24.9205
25.0542
25.1867
25.318
25.448
25.5768
25.7044
25.8308
25.956
26.08
26.2027
26.3243
26.4446
26.5638
26.6817
26.7984
26.914
27.0284
27.1415
27.2535
27.3644
27.474
27.5825
27.6898
27.796
27.901
28.0048
28.1075
28.209
28.3095
28.4087
28.5069
28.6039
28.6998
28.7946
28.8883
28.9809
29.0724
29.1628
29.2522
29.3404
29.4276
29.5137
29.5987
29.6827
29.7656
29.8475
29.9283
30.0081
30.0869
30.1646
30.2413
30.317
30.3917
30.4654
30.5381
30.6098
30.6805
30.7502
30.8189
30.8867
30.9535
31.0193
31.0842
31.1481
31.2111
31.2731
31.3342
31.3943
31.4536
31.5119
31.5692
31.6257
31.6813
31.7359
31.7896
31.8425
31.8944
31.9455
31.9957
32.045
32.0934
32.1409
32.1876
32.2334
32.2783
32.3224
32.3657
32.4081
32.4496
32.4903
32.5301
32.5691
32.6073
32.6447
32.6812
32.7169
32.7518
32.7858
32.8191
32.8515
32.8831
32.914
32.944
32.9732
33.0016
33.0292
33.056
33.082
33.1073
33.1317
33.1554
33.1783
33.2004
33.2217
33.2422
33.262
33.281
33.2992
33.3167
33.3334
33.3493
33.3644
33.3788
33.3924
33.4053
33.4173
33.4287
33.4392
33.4491
33.4581
33.4664
33.4739
33.4807
33.4868
33.492
33.4966
33.5003
33.5033
33.5056
33.5071
33.5079
7.75673
7.75283
7.74505
7.73343
7.71808
7.69909
7.67661
7.65078
7.62181
7.58986
7.55517
7.51795
7.47844
7.43688
7.39353
7.34861
7.3024
7.25513
7.20704
7.15839
7.1094
7.06031
7.01133
6.9627
6.91461
6.86728
6.8209
6.77566
6.73174
6.68932
6.64857
6.60966
6.57274
6.53796
6.50545
6.47537
6.44784
6.42299
6.40092
6.38176
6.36561
6.35257
6.34273
6.33618
6.333
6.33327
6.33705
6.34442
6.35542
6.37011
6.38854
6.41074
6.43675
6.46661
6.50032
6.53791
6.5794
6.62479
6.67408
6.72727
6.78435
6.84531
6.91014
6.9788
7.05129
7.12756
7.20759
7.29133
7.37875
7.4698
7.56444
7.66262
7.76428
7.86937
7.97783
8.08961
8.20463
8.32284
8.44417
8.56854
8.6959
8.82616
8.95925
9.09509
9.23362
9.37474
9.51839
9.66448
9.81293
9.96367
10.1166
10.2717
10.4288
10.5878
10.7488
10.9115
11.076
11.2421
11.4098
11.579
11.7496
11.9215
12.0947
12.269
12.4445
12.621
12.7985
12.9769
13.1561
13.336
13.5166
13.6979
13.8797
14.062
14.2447
14.4277
14.6111
14.7947
14.9785
15.1624
15.3464
15.5304
15.7144
15.8983
16.082
16.2656
16.4489
16.6319
16.8147
16.997
17.179
17.3605
17.5415
17.722
17.9019
18.0812
18.2599
18.438
18.6153
18.792
18.9678
19.1429
19.3172
19.4906
19.6632
19.8349
20.0057
20.1756
20.3445
20.5125
20.6794
20.8454
21.0103
21.1742
21.3371
21.4989
21.6596
21.8192
21.9777
22.1351
22.2913
22.4464
22.6004
22.7532
22.9049
23.0554
23.2047
23.3528
23.4997
23.6455
23.79
23.9334
24.0755
24.2164
24.3562
24.4947
24.6319
24.768
24.9029
25.0365
25.1689
25.3001
25.4301
25.5588
25.6864
25.8127
25.9378
26.0617
26.1844
26.3059
26.4262
26.5452
26.6631
26.7798
26.8953
27.0096
27.1227
27.2346
27.3453
27.4549
27.5633
27.6706
27.7766
27.8815
27.9853
28.0879
28.1894
28.2897
28.3889
28.487
28.584
28.6798
28.7745
28.8682
28.9607
29.0521
29.1424
29.2317
29.3198
29.4069
29.493
29.5779
29.6618
29.7447
29.8265
29.9072
29.9869
30.0656
30.1433
30.2199
30.2956
30.3702
30.4438
30.5164
30.588
30.6587
30.7283
30.797
30.8647
30.9314
30.9972
31.062
31.1258
31.1888
31.2507
31.3117
31.3718
31.431
31.4892
31.5466
31.603
31.6584
31.713
31.7667
31.8195
31.8714
31.9224
31.9725
32.0218
32.0701
32.1176
32.1642
32.21
32.2549
32.2989
32.3421
32.3845
32.4259
32.4666
32.5064
32.5454
32.5835
32.6208
32.6573
32.693
32.7278
32.7618
32.795
32.8274
32.859
32.8898
32.9198
32.9489
32.9773
33.0049
33.0317
33.0577
33.0829
33.1073
33.131
33.1538
33.1759
33.1972
33.2177
33.2374
33.2564
33.2746
33.292
33.3087
33.3246
33.3397
33.3541
33.3677
33.3805
33.3926
33.4039
33.4145
33.4243
33.4333
33.4416
33.4491
33.4559
33.4619
33.4672
33.4717
33.4755
33.4785
33.4807
33.4822
33.483
7.67543
7.67159
7.66391
7.65245
7.6373
7.61856
7.59637
7.57088
7.54227
7.51073
7.47648
7.43973
7.40071
7.35966
7.31684
7.27247
7.22682
7.18012
7.13262
7.08456
7.03618
6.9877
6.93935
6.89135
6.84391
6.79723
6.7515
6.70693
6.66369
6.62196
6.5819
6.54368
6.50745
6.47337
6.44157
6.41219
6.38536
6.3612
6.33983
6.32135
6.30588
6.29351
6.28434
6.27845
6.27591
6.27682
6.28124
6.28923
6.30084
6.31614
6.33516
6.35795
6.38455
6.41497
6.44925
6.4874
6.52944
6.57538
6.62521
6.67893
6.73655
6.79803
6.86338
6.93256
7.00555
7.08233
7.16285
7.24709
7.335
7.42654
7.52166
7.62031
7.72244
7.828
7.93693
8.04916
8.16464
8.2833
8.40507
8.52988
8.65766
8.78835
8.92186
9.05812
9.19705
9.33858
9.48263
9.62911
9.77794
9.92906
10.0824
10.2378
10.3953
10.5547
10.716
10.8791
11.0439
11.2103
11.3783
11.5478
11.7187
11.8909
12.0643
12.239
12.4147
12.5915
12.7692
12.9479
13.1273
13.3075
13.4883
13.6698
13.8518
14.0343
14.2172
14.4004
14.584
14.7678
14.9517
15.1358
15.3199
15.5041
15.6882
15.8722
16.0561
16.2397
16.4232
16.6063
16.7891
16.9716
17.1536
17.3352
17.5163
17.6968
17.8768
18.0562
18.235
18.413
18.5904
18.7671
18.943
19.1181
19.2924
19.4658
19.6384
19.8101
19.9809
20.1507
20.3196
20.4876
20.6545
20.8204
20.9854
21.1492
21.312
21.4738
21.6344
21.794
21.9524
22.1098
22.266
22.421
22.5749
22.7277
22.8793
23.0297
23.1789
23.3269
23.4738
23.6195
23.7639
23.9072
24.0492
24.1901
24.3297
24.4681
24.6053
24.7412
24.876
25.0095
25.1418
25.2729
25.4028
25.5314
25.6589
25.7851
25.9101
26.0339
26.1565
26.2778
26.398
26.517
26.6347
26.7513
26.8667
26.9808
27.0938
27.2056
27.3163
27.4257
27.534
27.6411
27.7471
27.8519
27.9556
28.0581
28.1594
28.2597
28.3587
28.4567
28.5536
28.6493
28.7439
28.8374
28.9298
29.0211
29.1113
29.2005
29.2885
29.3755
29.4614
29.5463
29.6301
29.7128
29.7945
29.8751
29.9548
30.0333
30.1109
30.1874
30.263
30.3375
30.411
30.4835
30.555
30.6256
30.6951
30.7637
30.8313
30.8979
30.9636
31.0283
31.0921
31.1549
31.2168
31.2777
31.3377
31.3968
31.455
31.5122
31.5685
31.6239
31.6784
31.732
31.7848
31.8366
31.8875
31.9375
31.9867
32.035
32.0824
32.129
32.1747
32.2195
32.2635
32.3066
32.3489
32.3903
32.4309
32.4706
32.5095
32.5476
32.5849
32.6213
32.6569
32.6917
32.7256
32.7588
32.7911
32.8227
32.8534
32.8833
32.9125
32.9408
32.9683
32.9951
33.021
33.0462
33.0706
33.0942
33.117
33.139
33.1603
33.1808
33.2005
33.2194
33.2376
33.255
33.2716
33.2875
33.3026
33.317
33.3305
33.3433
33.3554
33.3667
33.3772
33.387
33.3961
33.4043
33.4118
33.4186
33.4246
33.4299
33.4344
33.4381
33.4412
33.4434
33.4449
33.4457
7.58199
7.57826
7.57079
7.55966
7.54493
7.52671
7.50513
7.48032
7.45247
7.42174
7.38834
7.35247
7.31437
7.27426
7.23237
7.18895
7.14424
7.09847
7.05189
7.00474
6.95724
6.90963
6.86214
6.81498
6.76836
6.72249
6.67758
6.6338
6.59134
6.55039
6.51111
6.47367
6.43822
6.4049
6.37387
6.34526
6.31919
6.29578
6.27517
6.25744
6.24271
6.23108
6.22264
6.21747
6.21565
6.21727
6.22239
6.23107
6.24337
6.25934
6.27904
6.30249
6.32975
6.36082
6.39575
6.43454
6.47721
6.52378
6.57423
6.62858
6.68681
6.7489
6.81486
6.88464
6.95823
7.03561
7.11672
7.20155
7.29004
7.38216
7.47786
7.57709
7.6798
7.78592
7.89541
8.0082
8.12424
8.24345
8.36576
8.49112
8.61944
8.75066
8.8847
9.02148
9.16093
9.30297
9.44752
9.59451
9.74384
9.89544
10.0492
10.2051
10.3631
10.5229
10.6847
10.8482
11.0135
11.1803
11.3488
11.5187
11.69
11.8626
12.0364
12.2115
12.3876
12.5648
12.7428
12.9218
13.1016
13.2821
13.4633
13.6451
13.8274
14.0102
14.1934
14.377
14.5608
14.7448
14.9291
15.1134
15.2978
15.4822
15.6665
15.8507
16.0348
16.2187
16.4023
16.5857
16.7687
16.9513
17.1335
17.3153
17.4965
17.6772
17.8573
18.0369
18.2157
18.3939
18.5714
18.7482
18.9242
19.0994
19.2738
19.4473
19.62
19.7918
19.9626
20.1325
20.3015
20.4695
20.6365
20.8024
20.9674
21.1313
21.2941
21.4559
21.6166
21.7761
21.9346
22.0919
22.2481
22.4032
22.5571
22.7098
22.8614
23.0118
23.161
23.309
23.4559
23.6015
23.7459
23.8892
24.0312
24.172
24.3115
24.4499
24.587
24.723
24.8577
24.9912
25.1234
25.2544
25.3843
25.5129
25.6402
25.7664
25.8913
26.015
26.1376
26.2589
26.379
26.4978
26.6155
26.732
26.8473
26.9614
27.0743
27.1861
27.2966
27.406
27.5142
27.6213
27.7272
27.8319
27.9355
28.0379
28.1392
28.2393
28.3383
28.4362
28.533
28.6286
28.7231
28.8166
28.9089
29.0001
29.0902
29.1793
29.2673
29.3542
29.44
29.5248
29.6085
29.6911
29.7728
29.8533
29.9329
30.0114
30.0889
30.1653
30.2408
30.3152
30.3886
30.4611
30.5325
30.603
30.6725
30.741
30.8085
30.8751
30.9407
31.0053
31.069
31.1317
31.1936
31.2544
31.3144
31.3734
31.4315
31.4886
31.5449
31.6002
31.6547
31.7082
31.7609
31.8126
31.8635
31.9135
31.9626
32.0108
32.0582
32.1047
32.1503
32.1951
32.239
32.282
32.3243
32.3656
32.4062
32.4459
32.4847
32.5228
32.56
32.5963
32.6319
32.6666
32.7006
32.7337
32.766
32.7975
32.8282
32.8581
32.8872
32.9155
32.943
32.9697
32.9956
33.0207
33.0451
33.0686
33.0914
33.1134
33.1347
33.1551
33.1748
33.1937
33.2119
33.2293
33.2459
33.2617
33.2768
33.2911
33.3047
33.3175
33.3295
33.3408
33.3513
33.3611
33.3701
33.3784
33.3859
33.3926
33.3987
33.4039
33.4084
33.4122
33.4152
33.4174
33.4189
33.4197
7.48586
7.4822
7.47487
7.46395
7.4495
7.43162
7.41043
7.38608
7.35872
7.32854
7.29572
7.26047
7.223
7.18355
7.14234
7.09961
7.05559
7.01053
6.96466
6.91821
6.87143
6.82454
6.77777
6.73133
6.68544
6.64029
6.59611
6.55307
6.51135
6.47115
6.43263
6.39595
6.36126
6.32872
6.29847
6.27064
6.24536
6.22275
6.20292
6.18599
6.17205
6.16121
6.15355
6.14916
6.14812
6.15051
6.15638
6.16582
6.17887
6.19558
6.21601
6.24019
6.26815
6.29994
6.33557
6.37506
6.41842
6.46567
6.5168
6.57182
6.63072
6.69348
6.76009
6.83053
6.90477
6.98279
7.06454
7.15001
7.23913
7.33188
7.4282
7.52805
7.63136
7.7381
7.84819
7.96158
8.07821
8.19801
8.32091
8.44685
8.57574
8.70753
8.84213
8.97947
9.11947
9.26205
9.40714
9.55465
9.7045
9.85662
10.0109
10.1673
10.3257
10.4861
10.6483
10.8123
10.978
11.1454
11.3142
11.4846
11.6563
11.8293
12.0036
12.179
12.3556
12.5331
12.7116
12.8909
13.071
13.2519
13.4334
13.6155
13.7982
13.9813
14.1648
14.3486
14.5327
14.7171
14.9015
15.0861
15.2708
15.4554
15.64
15.8244
16.0087
16.1928
16.3766
16.5601
16.7433
16.9261
17.1085
17.2904
17.4718
17.6526
17.8329
18.0125
18.1915
18.3698
18.5474
18.7243
18.9004
19.0756
19.2501
19.4237
19.5964
19.7683
19.9392
20.1091
20.2781
20.4461
20.6131
20.7791
20.9441
21.108
21.2709
21.4326
21.5933
21.7529
21.9113
22.0686
22.2248
22.3798
22.5337
22.6864
22.8379
22.9883