/*--------------------------------*- C++ -*----------------------------------*\
| =========                 |                                                 |
| \\      /  F ield         | OpenFOAM: The Open Source CFD Toolbox           |
|  \\    /   O peration     | Version:  2212                                  |
|   \\  /    A nd           | Website:  www.openfoam.com                      |
|    \\/     M anipulation  |                                                 |
\*---------------------------------------------------------------------------*/
FoamFile
{
    version     2.0;
    format      ascii;
    arch        "LSB;label=32;scalar=64";
    class       volScalarField;
    location    "260";
    object      p_rgh_0;
}
// * * * * * * * * * * * * * * * * * * * * * * * * * * * * * * * * * * * * * //

dimensions      [1 -1 -2 0 0 0 0];

internalField   nonuniform List<scalar> 
204800
(
7.91248
7.90941
7.9036
7.89506
7.88377
7.86978
7.85311
7.83385
7.81204
7.78781
7.76122
7.73242
7.70153
7.66871
7.63411
7.59792
7.56033
7.52155
7.48177
7.44124
7.40016
7.35876
7.31728
7.27593
7.23495
7.19454
7.15493
7.11632
7.0789
7.04287
7.00841
6.9757
6.9449
6.91617
6.88966
6.86551
6.84385
6.82481
6.80851
6.79505
6.78454
6.77708
6.77276
6.77165
6.77384
6.77939
6.78837
6.80084
6.81684
6.83643
6.85965
6.88652
6.91708
6.95136
6.98936
7.03111
7.0766
7.12585
7.17885
7.2356
7.29608
7.36027
7.42817
7.49974
7.57495
7.65378
7.73618
7.82213
7.91157
8.00447
8.10077
8.20041
8.30336
8.40954
8.51891
8.63139
8.74693
8.86546
8.98691
9.11122
9.2383
9.3681
9.50053
9.63552
9.773
9.9129
10.0551
10.1996
10.3463
10.495
10.6458
10.7985
10.9531
11.1095
11.2676
11.4273
11.5885
11.7513
11.9154
12.0809
12.2476
12.4155
12.5844
12.7544
12.9254
13.0972
13.2699
13.4433
13.6174
13.792
13.9673
14.143
14.3191
14.4956
14.6724
14.8494
15.0266
15.2039
15.3813
15.5587
15.736
15.9133
16.0905
16.2674
16.4441
16.6206
16.7967
16.9725
17.1479
17.3228
17.4972
17.6711
17.8445
18.0173
18.1894
18.3609
18.5317
18.7018
18.8711
19.0397
19.2075
19.3744
19.5405
19.7057
19.8701
20.0335
20.196
20.3575
20.5181
20.6777
20.8362
20.9938
21.1503
21.3058
21.4602
21.6136
21.7658
21.917
22.0671
22.216
22.3639
22.5106
22.6562
22.8006
22.9439
23.086
23.227
23.3668
23.5055
23.643
23.7793
23.9145
24.0484
24.1812
24.3129
24.4433
24.5726
24.7007
24.8276
24.9534
25.078
25.2014
25.3236
25.4447
25.5646
25.6834
25.801
25.9174
26.0327
26.1468
26.2598
26.3716
26.4824
26.5919
26.7004
26.8077
26.9139
27.019
27.123
27.2258
27.3276
27.4283
27.5279
27.6264
27.7238
27.8202
27.9154
28.0097
28.1028
28.1949
28.286
28.376
28.465
28.553
28.6399
28.7258
28.8107
28.8946
28.9775
29.0594
29.1403
29.2202
29.2992
29.3771
29.4541
29.5302
29.6052
29.6794
29.7525
29.8248
29.8961
29.9664
30.0359
30.1044
30.172
30.2386
30.3044
30.3693
30.4333
30.4963
30.5585
30.6198
30.6802
30.7398
30.7985
30.8563
30.9132
30.9693
31.0245
31.0789
31.1325
31.1851
31.237
31.288
31.3382
31.3875
31.436
31.4837
31.5306
31.5767
31.6219
31.6664
31.71
31.7528
31.7949
31.8361
31.8766
31.9162
31.9551
31.9931
32.0304
32.0669
32.1026
32.1376
32.1718
32.2052
32.2378
32.2696
32.3007
32.3311
32.3606
32.3894
32.4175
32.4448
32.4713
32.4971
32.5221
32.5464
32.5699
32.5927
32.6147
32.636
32.6565
32.6763
32.6954
32.7137
32.7313
32.7481
32.7642
32.7795
32.7941
32.808
32.8212
32.8336
32.8453
32.8562
32.8664
32.8759
32.8847
32.8927
32.9
32.9065
32.9124
32.9175
32.9218
32.9255
32.9284
32.9306
32.932
32.9328
7.93546
7.93205
7.92556
7.91588
7.9031
7.88729
7.86852
7.84693
7.82263
7.79577
7.76652
7.73505
7.70154
7.66619
7.6292
7.59078
7.55114
7.51051
7.46909
7.42712
7.38481
7.34238
7.30003
7.25799
7.21646
7.17563
7.13571
7.09688
7.05932
7.02322
6.98873
6.95604
6.92528
6.89661
6.87018
6.84612
6.82456
6.80562
6.78941
6.77605
6.76563
6.75826
6.75401
6.75298
6.75523
6.76085
6.76988
6.78239
6.79844
6.81806
6.8413
6.86818
6.89875
6.93303
6.97102
7.01275
7.05822
7.10744
7.1604
7.2171
7.27753
7.34166
7.40949
7.48098
7.55611
7.63485
7.71716
7.803
7.89233
7.98511
8.08128
8.1808
8.2836
8.38964
8.49886
8.61119
8.72656
8.84492
8.9662
9.09032
9.21722
9.34682
9.47905
9.61384
9.75112
9.89079
10.0328
10.1771
10.3235
10.472
10.6226
10.775
10.9294
11.0855
11.2433
11.4028
11.5638
11.7263
11.8901
12.0553
12.2218
12.3894
12.5581
12.7278
12.8984
13.07
13.2424
13.4155
13.5892
13.7636
13.9386
14.114
14.2898
14.466
14.6424
14.8191
14.996
15.173
15.3501
15.5272
15.7043
15.8812
16.0581
16.2347
16.4111
16.5873
16.7631
16.9385
17.1136
17.2882
17.4623
17.6359
17.809
17.9814
18.1533
18.3244
18.4949
18.6647
18.8338
19.002
19.1695
19.3361
19.5019
19.6668
19.8309
19.994
20.1562
20.3174
20.4777
20.637
20.7953
20.9525
21.1088
21.264
21.4181
21.5711
21.7231
21.874
22.0238
22.1725
22.32
22.4665
22.6118
22.7559
22.899
23.0408
23.1815
23.3211
23.4595
23.5967
23.7328
23.8677
24.0014
24.134
24.2653
24.3955
24.5246
24.6524
24.7791
24.9046
25.029
25.1521
25.2741
25.395
25.5147
25.6332
25.7505
25.8668
25.9818
26.0957
26.2085
26.3201
26.4306
26.54
26.6482
26.7553
26.8613
26.9662
27.07
27.1727
27.2742
27.3747
27.4741
27.5724
27.6697
27.7658
27.8609
27.955
28.0479
28.1399
28.2307
28.3206
28.4094
28.4972
28.5839
28.6697
28.7544
28.8382
28.9209
29.0026
29.0834
29.1631
29.2419
29.3197
29.3966
29.4724
29.5474
29.6213
29.6944
29.7665
29.8376
29.9078
29.9771
30.0455
30.113
30.1795
30.2452
30.3099
30.3737
30.4367
30.4988
30.5599
30.6203
30.6797
30.7382
30.7959
30.8528
30.9087
30.9639
31.0181
31.0716
31.1241
31.1759
31.2268
31.2769
31.3261
31.3745
31.4221
31.4689
31.5149
31.5601
31.6044
31.648
31.6907
31.7327
31.7738
31.8142
31.8537
31.8925
31.9305
31.9677
32.0042
32.0398
32.0747
32.1088
32.1421
32.1747
32.2065
32.2375
32.2678
32.2973
32.326
32.354
32.3813
32.4077
32.4335
32.4584
32.4827
32.5061
32.5289
32.5508
32.5721
32.5926
32.6123
32.6314
32.6496
32.6672
32.684
32.7
32.7153
32.7299
32.7438
32.7569
32.7693
32.7809
32.7919
32.8021
32.8115
32.8203
32.8283
32.8355
32.8421
32.8479
32.853
32.8574
32.861
32.8639
32.8661
32.8675
32.8683
7.9127
7.9094
7.90297
7.89338
7.8807
7.865
7.84638
7.82494
7.80082
7.77416
7.74511
7.71387
7.6806
7.6455
7.60877
7.57062
7.53125
7.4909
7.44976
7.40807
7.36604
7.32389
7.28182
7.24005
7.19879
7.15822
7.11856
7.07998
7.04266
7.00679
6.97254
6.94007
6.90953
6.88107
6.85485
6.83099
6.80962
6.79086
6.77484
6.76166
6.75141
6.74421
6.74013
6.73926
6.74167
6.74744
6.75662
6.76929
6.78547
6.80524
6.82862
6.85564
6.88635
6.92075
6.95888
7.00074
7.04634
7.09568
7.14877
7.20559
7.26613
7.33039
7.39833
7.46994
7.54518
7.62403
7.70645
7.7924
7.88184
7.97472
8.071
8.17062
8.27353
8.37967
8.48898
8.6014
8.71687
8.83533
8.95669
9.08091
9.20789
9.33758
9.4699
9.60478
9.74214
9.88189
10.024
10.1683
10.3148
10.4634
10.614
10.7666
10.921
11.0772
11.2351
11.3946
11.5557
11.7182
11.8821
12.0474
12.2139
12.3815
12.5503
12.72
12.8908
13.0624
13.2348
13.4079
13.5817
13.7561
13.9311
14.1066
14.2824
14.4586
14.6351
14.8119
14.9888
15.1658
15.3429
15.52
15.6971
15.8741
16.0509
16.2276
16.404
16.5802
16.756
16.9315
17.1065
17.2811
17.4553
17.6289
17.8019
17.9744
18.1462
18.3174
18.4879
18.6577
18.8267
18.9949
19.1624
19.329
19.4948
19.6597
19.8237
19.9869
20.149
20.3103
20.4705
20.6298
20.788
20.9453
21.1015
21.2567
21.4108
21.5638
21.7158
21.8666
22.0164
22.165
22.3126
22.459
22.6043
22.7484
22.8914
23.0332
23.1739
23.3134
23.4518
23.589
23.725
23.8599
23.9936
24.1261
24.2575
24.3876
24.5166
24.6445
24.7711
24.8966
25.0209
25.144
25.266
25.3868
25.5065
25.625
25.7423
25.8585
25.9735
26.0874
26.2001
26.3117
26.4222
26.5315
26.6397
26.7468
26.8527
26.9576
27.0613
27.164
27.2655
27.366
27.4653
27.5636
27.6608
27.7569
27.852
27.946
28.0389
28.1308
28.2217
28.3115
28.4003
28.488
28.5748
28.6605
28.7452
28.8289
28.9116
28.9933
29.074
29.1537
29.2325
29.3102
29.3871
29.4629
29.5378
29.6117
29.6847
29.7568
29.8279
29.8981
29.9674
30.0357
30.1032
30.1697
30.2353
30.3
30.3638
30.4268
30.4888
30.55
30.6102
30.6696
30.7282
30.7858
30.8427
30.8986
30.9537
31.0079
31.0613
31.1139
31.1656
31.2165
31.2666
31.3158
31.3642
31.4118
31.4585
31.5045
31.5496
31.594
31.6375
31.6802
31.7222
31.7633
31.8036
31.8432
31.8819
31.9199
31.9571
31.9935
32.0292
32.064
32.0981
32.1314
32.164
32.1958
32.2268
32.257
32.2865
32.3153
32.3432
32.3705
32.3969
32.4226
32.4476
32.4718
32.4953
32.518
32.54
32.5612
32.5817
32.6014
32.6204
32.6387
32.6562
32.673
32.6891
32.7044
32.719
32.7328
32.7459
32.7583
32.77
32.7809
32.7911
32.8005
32.8093
32.8173
32.8245
32.8311
32.8369
32.842
32.8463
32.85
32.8529
32.8551
32.8565
32.8572
7.90186
7.89839
7.89158
7.88139
7.86795
7.85132
7.83162
7.80899
7.78359
7.7556
7.7252
7.69261
7.65801
7.62165
7.58372
7.54447
7.50411
7.46287
7.42096
7.37862
7.33606
7.29348
7.2511
7.20911
7.16771
7.12709
7.08744
7.04893
7.01173
6.97602
6.94196
6.9097
6.8794
6.85119
6.82522
6.80162
6.78051
6.76202
6.74625
6.73332
6.72333
6.71636
6.71252
6.71187
6.71451
6.72049
6.72988
6.74273
6.75911
6.77906
6.80261
6.8298
6.86066
6.89522
6.93348
6.97548
7.02121
7.07067
7.12387
7.1808
7.24144
7.30579
7.37382
7.44551
7.52082
7.59974
7.68222
7.76823
7.85772
7.95064
8.04696
8.14661
8.24954
8.3557
8.46503
8.57746
8.69294
8.81139
8.93275
9.05695
9.18392
9.31358
9.44587
9.58071
9.71803
9.85774
9.99978
10.1441
10.2905
10.439
10.5896
10.7421
10.8964
11.0525
11.2103
11.3698
11.5307
11.6932
11.857
12.0221
12.1885
12.356
12.5246
12.6943
12.8649
13.0363
13.2086
13.3816
13.5553
13.7296
13.9044
14.0797
14.2554
14.4314
14.6078
14.7843
14.9611
15.138
15.3149
15.4918
15.6687
15.8455
16.0222
16.1987
16.3749
16.5509
16.7265
16.9018
17.0767
17.2511
17.425
17.5984
17.7713
17.9435
18.1152
18.2861
18.4564
18.626
18.7948
18.9629
19.1301
19.2965
19.4621
19.6268
19.7906
19.9535
20.1155
20.2765
20.4366
20.5956
20.7537
20.9107
21.0667
21.2217
21.3756
21.5284
21.6801
21.8308
21.9803
22.1288
22.2761
22.4223
22.5674
22.7113
22.8541
22.9957
23.1362
23.2755
23.4137
23.5507
23.6865
23.8212
23.9547
24.087
24.2182
24.3481
24.4769
24.6046
24.731
24.8563
24.9804
25.1034
25.2252
25.3458
25.4652
25.5835
25.7007
25.8167
25.9315
26.0452
26.1578
26.2692
26.3795
26.4886
26.5967
26.7036
26.8094
26.914
27.0176
27.1201
27.2215
27.3217
27.4209
27.5191
27.6161
27.7121
27.807
27.9008
27.9936
28.0853
28.176
28.2657
28.3543
28.4419
28.5285
28.6141
28.6987
28.7822
28.8648
28.9463
29.0269
29.1065
29.1851
29.2628
29.3395
29.4152
29.4899
29.5638
29.6366
29.7086
29.7796
29.8496
29.9188
29.987
30.0543
30.1207
30.1862
30.2508
30.3146
30.3774
30.4393
30.5004
30.5605
30.6198
30.6783
30.7358
30.7925
30.8484
30.9034
30.9575
31.0108
31.0633
31.1149
31.1657
31.2157
31.2648
31.3132
31.3607
31.4073
31.4532
31.4983
31.5425
31.586
31.6286
31.6705
31.7115
31.7518
31.7913
31.83
31.8679
31.905
31.9414
31.9769
32.0117
32.0458
32.079
32.1115
32.1432
32.1742
32.2044
32.2339
32.2625
32.2905
32.3176
32.3441
32.3697
32.3946
32.4188
32.4422
32.4649
32.4868
32.508
32.5285
32.5482
32.5672
32.5854
32.6029
32.6197
32.6357
32.651
32.6655
32.6793
32.6924
32.7048
32.7164
32.7273
32.7375
32.7469
32.7557
32.7636
32.7709
32.7774
32.7832
32.7883
32.7927
32.7963
32.7992
32.8014
32.8028
32.8035
7.85827
7.85489
7.84819
7.83819
7.82497
7.80862
7.78923
7.76697
7.74197
7.71442
7.68448
7.65237
7.61828
7.58242
7.54501
7.50628
7.46644
7.42572
7.38434
7.34251
7.30045
7.25837
7.21647
7.17496
7.13403
7.09387
7.05467
7.0166
6.97984
6.94456
6.91092
6.87907
6.84916
6.82135
6.79576
6.77254
6.7518
6.73367
6.71826
6.70568
6.69603
6.6894
6.68588
6.68555
6.6885
6.69479
6.70448
6.71763
6.7343
6.75453
6.77836
6.80583
6.83696
6.87179
6.91032
6.95258
6.99856
7.04828
7.10173
7.15891
7.2198
7.28439
7.35266
7.42458
7.50014
7.57929
7.662
7.74823
7.83794
7.93109
8.02762
8.12749
8.23064
8.33701
8.44655
8.55919
8.67487
8.79352
8.91508
9.03948
9.16664
9.2965
9.42898
9.564
9.7015
9.8414
9.98361
10.1281
10.2747
10.4234
10.5741
10.7267
10.8812
11.0375
11.1955
11.355
11.5161
11.6787
11.8427
12.008
12.1745
12.3421
12.5109
12.6806
12.8513
13.0229
13.1953
13.3684
13.5422
13.7166
13.8915
14.0669
14.2427
14.4188
14.5952
14.7719
14.9487
15.1256
15.3026
15.4796
15.6566
15.8335
16.0102
16.1867
16.363
16.539
16.7147
16.89
17.0649
17.2393
17.4133
17.5867
17.7596
17.9319
18.1036
18.2745
18.4448
18.6144
18.7833
18.9513
19.1186
19.285
19.4506
19.6153
19.7791
19.942
20.1039
20.2649
20.425
20.584
20.7421
20.8991
21.0551
21.21
21.3639
21.5167
21.6684
21.819
21.9686
22.117
22.2643
22.4104
22.5555
22.6994
22.8421
22.9837
23.1242
23.2634
23.4016
23.5385
23.6743
23.8089
23.9424
24.0747
24.2058
24.3357
24.4645
24.592
24.7185
24.8437
24.9678
25.0907
25.2124
25.333
25.4524
25.5706
25.6877
25.8037
25.9185
26.0321
26.1446
26.256
26.3662
26.4753
26.5833
26.6901
26.7959
26.9005
27.004
27.1064
27.2078
27.308
27.4071
27.5052
27.6022
27.6981
27.7929
27.8867
27.9795
28.0712
28.1618
28.2514
28.34
28.4276
28.5141
28.5996
28.6841
28.7676
28.8501
28.9316
29.0122
29.0917
29.1703
29.2479
29.3245
29.4002
29.4749
29.5487
29.6215
29.6934
29.7643
29.8344
29.9035
29.9717
30.0389
30.1053
30.1707
30.2353
30.299
30.3617
30.4236
30.4846
30.5448
30.604
30.6624
30.7199
30.7766
30.8324
30.8874
30.9415
30.9948
31.0472
31.0988
31.1495
31.1995
31.2486
31.2969
31.3443
31.391
31.4368
31.4818
31.5261
31.5695
31.6121
31.6539
31.695
31.7352
31.7746
31.8133
31.8512
31.8883
31.9246
31.9602
31.9949
32.0289
32.0622
32.0946
32.1263
32.1573
32.1874
32.2169
32.2455
32.2734
32.3006
32.327
32.3526
32.3775
32.4017
32.4251
32.4477
32.4697
32.4908
32.5113
32.531
32.5499
32.5681
32.5856
32.6024
32.6184
32.6336
32.6482
32.662
32.6751
32.6874
32.6991
32.7099
32.7201
32.7295
32.7382
32.7462
32.7535
32.76
32.7658
32.7709
32.7752
32.7789
32.7818
32.7839
32.7854
32.7861
7.82035
7.8169
7.81004
7.7998
7.78627
7.76955
7.74975
7.72702
7.70154
7.67348
7.64303
7.61042
7.57585
7.53955
7.50175
7.46266
7.42253
7.38157
7.34001
7.29807
7.25596
7.2139
7.17207
7.13069
7.08995
7.05002
7.01108
6.97332
6.93689
6.90197
6.86871
6.83726
6.80777
6.78037
6.75521
6.73241
6.7121
6.69439
6.6794
6.66723
6.65798
6.65175
6.64862
6.64867
6.65199
6.65864
6.66869
6.68219
6.6992
6.71976
6.74391
6.77169
6.80313
6.83825
6.87708
6.91962
6.96588
7.01587
7.06958
7.12701
7.18816
7.25299
7.3215
7.39366
7.46944
7.54881
7.63173
7.71818
7.80809
7.90144
7.99817
8.09822
8.20155
8.3081
8.41781
8.53062
8.64645
8.76526
8.88697
9.01151
9.13882
9.26881
9.40142
9.53657
9.67418
9.81419
9.95651
10.1011
10.2478
10.3966
10.5474
10.7001
10.8547
11.011
11.169
11.3287
11.4898
11.6525
11.8165
11.9818
12.1483
12.316
12.4848
12.6546
12.8253
12.9969
13.1692
13.3423
13.5161
13.6905
13.8654
14.0407
14.2165
14.3926
14.569
14.7456
14.9224
15.0993
15.2762
15.4532
15.6301
15.8069
15.9835
16.16
16.3362
16.5121
16.6877
16.863
17.0378
17.2121
17.386
17.5593
17.7321
17.9043
18.0758
18.2467
18.4169
18.5864
18.7551
18.923
19.0902
19.2565
19.4219
19.5865
19.7502
19.9129
20.0748
20.2356
20.3955
20.5544
20.7123
20.8692
21.025
21.1798
21.3336
21.4862
21.6378
21.7883
21.9376
22.0859
22.2331
22.3791
22.524
22.6677
22.8103
22.9517
23.092
23.2312
23.3691
23.5059
23.6416
23.776
23.9093
24.0414
24.1724
24.3022
24.4308
24.5582
24.6845
24.8095
24.9334
25.0562
25.1778
25.2982
25.4174
25.5355
25.6525
25.7683
25.8829
25.9964
26.1088
26.22
26.3301
26.439
26.5468
26.6536
26.7591
26.8636
26.967
27.0693
27.1705
27.2705
27.3695
27.4675
27.5643
27.6601
27.7548
27.8485
27.9411
28.0326
28.1231
28.2126
28.3011
28.3885
28.4749
28.5603
28.6447
28.728
28.8104
28.8918
28.9722
29.0516
29.1301
29.2076
29.2841
29.3596
29.4342
29.5079
29.5806
29.6524
29.7232
29.7931
29.8621
29.9302
29.9974
30.0636
30.129
30.1934
30.257
30.3197
30.3815
30.4424
30.5024
30.5616
30.6199
30.6773
30.7339
30.7896
30.8445
30.8985
30.9517
31.004
31.0555
31.1062
31.1561
31.2051
31.2533
31.3007
31.3473
31.393
31.438
31.4821
31.5255
31.568
31.6098
31.6507
31.6909
31.7303
31.7689
31.8067
31.8438
31.88
31.9155
31.9502
31.9842
32.0173
32.0498
32.0814
32.1123
32.1424
32.1718
32.2004
32.2283
32.2554
32.2817
32.3073
32.3322
32.3563
32.3797
32.4023
32.4242
32.4453
32.4657
32.4854
32.5043
32.5225
32.5399
32.5566
32.5726
32.5879
32.6024
32.6162
32.6292
32.6416
32.6532
32.664
32.6742
32.6836
32.6923
32.7003
32.7075
32.714
32.7198
32.7249
32.7292
32.7328
32.7357
32.7379
32.7394
32.7401
7.75883
7.75547
7.74876
7.73876
7.72553
7.70918
7.68982
7.66759
7.64264
7.61516
7.58534
7.55337
7.51946
7.48383
7.44671
7.4083
7.36885
7.32857
7.28767
7.24639
7.20493
7.1635
7.12231
7.08155
7.04141
7.00208
6.96374
6.92656
6.89072
6.85637
6.82367
6.79278
6.76385
6.737
6.71238
6.69012
6.67034
6.65315
6.63867
6.62701
6.61826
6.61251
6.60986
6.61039
6.61418
6.62128
6.63178
6.64572
6.66316
6.68415
6.70873
6.73692
6.76877
6.8043
6.84353
6.88646
6.93311
6.98349
7.03758
7.0954
7.15691
7.22212
7.29099
7.36351
7.43966
7.51938
7.60266
7.68946
7.77972
7.87341
7.97048
8.07087
8.17454
8.28142
8.39146
8.50459
8.62075
8.73988
8.8619
8.98675
9.11436
9.24466
9.37757
9.51302
9.65092
9.79122
9.93382
10.0787
10.2257
10.3747
10.5258
10.6788
10.8336
10.9902
11.1485
11.3083
11.4697
11.6326
11.7968
11.9624
12.1291
12.297
12.466
12.636
12.8069
12.9787
13.1513
13.3246
13.4985
13.673
13.8481
14.0236
14.1996
14.3758
14.5524
14.7291
14.906
15.083
15.2601
15.4372
15.6142
15.7911
15.9679
16.1444
16.3208
16.4968
16.6725
16.8478
17.0227
17.1971
17.371
17.5444
17.7173
17.8895
18.0611
18.232
18.4023
18.5718
18.7405
18.9085
19.0757
19.242
19.4075
19.5721
19.7358
19.8986
20.0604
20.2213
20.3812
20.5401
20.698
20.8548
21.0107
21.1654
21.3192
21.4718
21.6234
21.7738
21.9232
22.0714
22.2185
22.3645
22.5094
22.6531
22.7957
22.9371
23.0773
23.2164
23.3543
23.4911
23.6267
23.7611
23.8944
24.0264
24.1573
24.2871
24.4156
24.543
24.6692
24.7942
24.9181
25.0408
25.1623
25.2827
25.4019
25.5199
25.6368
25.7525
25.8671
25.9805
26.0928
26.204
26.314
26.4229
26.5306
26.6373
26.7428
26.8472
26.9505
27.0527
27.1539
27.2539
27.3528
27.4507
27.5475
27.6432
27.7378
27.8314
27.924
28.0154
28.1059
28.1953
28.2837
28.3711
28.4574
28.5427
28.627
28.7103
28.7927
28.874
28.9543
29.0337
29.1121
29.1895
29.266
29.3415
29.416
29.4896
29.5622
29.634
29.7047
29.7746
29.8435
29.9116
29.9787
30.0449
30.1102
30.1746
30.2381
30.3007
30.3624
30.4233
30.4833
30.5424
30.6006
30.658
30.7145
30.7702
30.825
30.879
30.9321
30.9844
31.0359
31.0865
31.1363
31.1853
31.2334
31.2808
31.3273
31.373
31.4179
31.462
31.5054
31.5479
31.5896
31.6305
31.6706
31.71
31.7485
31.7863
31.8233
31.8596
31.895
31.9297
31.9636
31.9967
32.0291
32.0607
32.0916
32.1217
32.151
32.1796
32.2074
32.2345
32.2609
32.2864
32.3113
32.3354
32.3587
32.3813
32.4032
32.4243
32.4447
32.4643
32.4832
32.5014
32.5188
32.5355
32.5515
32.5667
32.5812
32.595
32.608
32.6203
32.6319
32.6428
32.6529
32.6623
32.671
32.679
32.6862
32.6927
32.6985
32.7036
32.7079
32.7115
32.7144
32.7166
32.718
32.7187
7.69932
7.69595
7.68922
7.6792
7.66594
7.64955
7.63015
7.60789
7.58292
7.55543
7.5256
7.49364
7.45977
7.4242
7.38715
7.34886
7.30954
7.26942
7.22873
7.18769
7.14649
7.10537
7.06451
7.02411
6.98437
6.94546
6.90757
6.87087
6.83552
6.80169
6.76953
6.73919
6.71081
6.68452
6.66047
6.63878
6.61957
6.60295
6.58904
6.57794
6.56974
6.56455
6.56244
6.5635
6.56781
6.57543
6.58643
6.60086
6.61879
6.64026
6.6653
6.69396
6.72627
6.76224
6.8019
6.84527
6.89234
6.94313
6.99764
7.05586
7.11777
7.18337
7.25263
7.32553
7.40205
7.48215
7.56579
7.65295
7.74357
7.83761
7.93502
8.03575
8.13975
8.24696
8.35732
8.47077
8.58724
8.70668
8.829
8.95415
9.08205
9.21263
9.34582
9.48154
9.61972
9.76028
9.90314
10.0482
10.1955
10.3448
10.4961
10.6493
10.8043
10.9611
11.1196
11.2797
11.4413
11.6043
11.7688
11.9345
12.1014
12.2695
12.4386
12.6087
12.7798
12.9517
13.1244
13.2978
13.4719
13.6466
13.8217
13.9974
14.1734
14.3497
14.5263
14.7032
14.8802
15.0573
15.2344
15.4115
15.5886
15.7655
15.9423
16.1189
16.2953
16.4713
16.647
16.8223
16.9972
17.1716
17.3456
17.519
17.6918
17.864
18.0356
18.2065
18.3767
18.5462
18.7149
18.8828
19.0499
19.2162
19.3816
19.5462
19.7098
19.8725
20.0343
20.1951
20.3549
20.5137
20.6715
20.8283
20.9841
21.1388
21.2924
21.4449
21.5964
21.7468
21.896
22.0442
22.1912
22.3371
22.4818
22.6254
22.7679
22.9092
23.0493
23.1883
23.3261
23.4627
23.5982
23.7325
23.8656
23.9976
24.1284
24.258
24.3864
24.5136
24.6397
24.7646
24.8884
25.0109
25.1323
25.2526
25.3716
25.4895
25.6063
25.7219
25.8363
25.9496
26.0618
26.1728
26.2827
26.3915
26.4991
26.6056
26.711
26.8153
26.9185
27.0206
27.1216
27.2215
27.3203
27.418
27.5147
27.6103
27.7048
27.7983
27.8907
27.9821
28.0724
28.1617
28.25
28.3372
28.4234
28.5086
28.5928
28.676
28.7582
28.8394
28.9197
28.9989
29.0772
29.1545
29.2309
29.3062
29.3807
29.4542
29.5267
29.5983
29.669
29.7388
29.8076
29.8755
29.9425
30.0086
30.0738
30.1381
30.2015
30.2641
30.3257
30.3865
30.4464
30.5054
30.5635
30.6208
30.6773
30.7329
30.7876
30.8415
30.8945
30.9467
30.9981
31.0487
31.0984
31.1473
31.1954
31.2427
31.2891
31.3348
31.3796
31.4236
31.4669
31.5093
31.551
31.5918
31.6319
31.6712
31.7097
31.7474
31.7843
31.8205
31.8559
31.8905
31.9244
31.9575
31.9898
32.0214
32.0522
32.0822
32.1115
32.1401
32.1678
32.1949
32.2212
32.2467
32.2715
32.2955
32.3188
32.3414
32.3632
32.3843
32.4047
32.4243
32.4431
32.4613
32.4787
32.4954
32.5113
32.5265
32.541
32.5548
32.5678
32.5801
32.5916
32.6025
32.6126
32.622
32.6307
32.6386
32.6458
32.6523
32.6581
32.6632
32.6675
32.6711
32.674
32.6761
32.6776
32.6783
7.62266
7.61939
7.61283
7.60306
7.59014
7.57416
7.55524
7.53352
7.50915
7.4823
7.45315
7.4219
7.38875
7.35392
7.31762
7.28008
7.24151
7.20214
7.16218
7.12186
7.08138
7.04096
7.0008
6.96109
6.92203
6.88381
6.84659
6.81056
6.77588
6.74272
6.71123
6.68155
6.65384
6.62823
6.60484
6.58381
6.56526
6.5493
6.53604
6.52558
6.51803
6.51346
6.51198
6.51366
6.51857
6.52679
6.53839
6.55341
6.57192
6.59395
6.61956
6.64877
6.68163
6.71814
6.75834
6.80224
6.84984
6.90115
6.95617
7.0149
7.07732
7.14342
7.21318
7.28658
7.36359
7.44417
7.5283
7.61594
7.70703
7.80154
7.89942
8.00062
8.10508
8.21275
8.32356
8.43746
8.55438
8.67426
8.79702
8.9226
9.05093
9.18194
9.31554
9.45168
9.59026
9.73123
9.87449
10.02
10.1676
10.3173
10.469
10.6225
10.778
10.9351
11.094
11.2544
11.4163
11.5797
11.7445
11.9105
12.0777
12.2461
12.4156
12.586
12.7573
12.9295
13.1025
13.2762
13.4505
13.6254
13.8009
13.9767
14.153
14.3296
14.5064
14.6834
14.8606
15.0379
15.2152
15.3926
15.5698
15.7469
15.9239
16.1006
16.2771
16.4533
16.6292
16.8046
16.9797
17.1542
17.3283
17.5018
17.6747
17.847
18.0187
18.1897
18.36
18.5295
18.6983
18.8663
19.0335
19.1998
19.3653
19.5299
19.6936
19.8563
20.0181
20.179
20.3388
20.4977
20.6555
20.8123
20.9681
21.1228
21.2764
21.429
21.5804
21.7308
21.88
22.0282
22.1752
22.321
22.4658
22.6093
22.7518
22.893
23.0331
23.1721
23.3099
23.4465
23.5819
23.7162
23.8493
23.9812
24.1119
24.2415
24.3698
24.497
24.6231
24.7479
24.8716
24.9941
25.1154
25.2356
25.3546
25.4725
25.5892
25.7047
25.8191
25.9323
26.0444
26.1554
26.2652
26.3739
26.4815
26.5879
26.6933
26.7975
26.9006
27.0026
27.1035
27.2034
27.3021
27.3998
27.4963
27.5919
27.6863
27.7797
27.8721
27.9633
28.0536
28.1428
28.231
28.3182
28.4043
28.4895
28.5736
28.6567
28.7389
28.82
28.9002
28.9793
29.0575
29.1348
29.211
29.2864
29.3607
29.4341
29.5066
29.5782
29.6488
29.7185
29.7872
29.8551
29.922
29.9881
30.0532
30.1174
30.1808
30.2432
30.3048
30.3655
30.4253
30.4843
30.5424
30.5996
30.656
30.7115
30.7662
30.8201
30.873
30.9252
30.9765
31.027
31.0767
31.1255
31.1736
31.2208
31.2672
31.3128
31.3576
31.4016
31.4448
31.4872
31.5288
31.5696
31.6096
31.6488
31.6873
31.725
31.7619
31.798
31.8333
31.8679
31.9018
31.9348
31.9671
31.9986
32.0294
32.0594
32.0887
32.1172
32.1449
32.1719
32.1982
32.2237
32.2485
32.2725
32.2958
32.3183
32.3401
32.3611
32.3815
32.4011
32.4199
32.438
32.4554
32.4721
32.488
32.5032
32.5176
32.5314
32.5444
32.5567
32.5682
32.5791
32.5892
32.5985
32.6072
32.6151
32.6223
32.6288
32.6346
32.6396
32.644
32.6476
32.6505
32.6526
32.6541
32.6548
7.54592
7.54268
7.53618
7.5265
7.51369
7.49786
7.47912
7.4576
7.43345
7.40685
7.37797
7.34701
7.31418
7.27967
7.24372
7.20654
7.16835
7.12937
7.08982
7.04993
7.0099
6.96994
6.93026
6.89105
6.85251
6.81482
6.77816
6.7427
6.70862
6.67606
6.6452
6.61616
6.5891
6.56415
6.54144
6.52109
6.50323
6.48796
6.47539
6.46562
6.45875
6.45487
6.45406
6.45641
6.46199
6.47087
6.48311
6.49878
6.51791
6.54057
6.56679
6.59662
6.63007
6.66717
6.70796
6.75243
6.8006
6.85248
6.90806
6.96733
7.0303
7.09694
7.16723
7.24116
7.31869
7.39979
7.48443
7.57257
7.66417
7.75918
7.85755
7.95924
8.06418
8.17232
8.28361
8.39797
8.51535
8.63568
8.7589
8.88492
9.01369
9.14513
9.27916
9.41572
9.55472
9.69609
9.83975
9.98563
10.1336
10.2837
10.4358
10.5897
10.7455
10.903
11.0622
11.223
11.3852
11.5489
11.714
11.8803
12.0479
12.2166
12.3863
12.557
12.7286
12.9011
13.0743
13.2482
13.4228
13.598
13.7736
13.9497
14.1261
14.3029
14.4799
14.6572
14.8345
15.012
15.1895
15.367
15.5443
15.7216
15.8987
16.0756
16.2522
16.4285
16.6044
16.78
16.9551
17.1298
17.3039
17.4775
17.6505
17.8228
17.9946
18.1656
18.3359
18.5055
18.6743
18.8424
19.0096
19.1759
19.3414
19.506
19.6697
19.8324
19.9942
20.155
20.3149
20.4737
20.6315
20.7883
20.944
21.0987
21.2522
21.4048
21.5562
21.7065
21.8557
22.0037
22.1507
22.2965
22.4411
22.5846
22.727
22.8682
23.0082
23.1471
23.2848
23.4213
23.5567
23.6908
23.8238
23.9557
24.0863
24.2157
24.344
24.4711
24.5971
24.7218
24.8454
24.9678
25.089
25.2091
25.328
25.4457
25.5623
25.6778
25.792
25.9052
26.0172
26.128
26.2377
26.3463
26.4538
26.5601
26.6653
26.7694
26.8724
26.9743
27.0751
27.1748
27.2735
27.371
27.4675
27.5629
27.6572
27.7505
27.8428
27.9339
28.0241
28.1132
28.2013
28.2883
28.3744
28.4594
28.5434
28.6264
28.7085
28.7895
28.8695
28.9486
29.0267
29.1039
29.18
29.2552
29.3295
29.4028
29.4752
29.5466
29.6172
29.6867
29.7554
29.8232
29.89
29.9559
30.021
30.0851
30.1484
30.2108
30.2722
30.3329
30.3926
30.4515
30.5095
30.5666
30.6229
30.6784
30.733
30.7867
30.8396
30.8917
30.943
30.9934
31.043
31.0917
31.1397
31.1868
31.2332
31.2787
31.3234
31.3673
31.4105
31.4528
31.4943
31.5351
31.575
31.6142
31.6526
31.6902
31.7271
31.7631
31.7984
31.833
31.8667
31.8997
31.932
31.9634
31.9942
32.0241
32.0533
32.0818
32.1095
32.1365
32.1627
32.1881
32.2129
32.2369
32.2601
32.2826
32.3044
32.3254
32.3457
32.3652
32.384
32.4021
32.4195
32.4361
32.452
32.4672
32.4816
32.4953
32.5083
32.5206
32.5321
32.5429
32.553
32.5624
32.571
32.579
32.5862
32.5926
32.5984
32.6034
32.6077
32.6113
32.6142
32.6164
32.6178
32.6185
7.4566
7.45345
7.44712
7.43769
7.42522
7.4098
7.39153
7.37055
7.34699
7.32102
7.29282
7.26256
7.23045
7.19668
7.16148
7.12504
7.0876
7.04937
7.01056
6.9714
6.93209
6.89284
6.85386
6.81535
6.77751
6.74051
6.70454
6.66978
6.63639
6.60454
6.57439
6.54607
6.51973
6.49551
6.47354
6.45393
6.43681
6.42229
6.41048
6.40146
6.39535
6.39222
6.39217
6.39526
6.40158
6.4112
6.42417
6.44055
6.46041
6.48377
6.5107
6.54121
6.57535
6.61314
6.6546
6.69974
6.74857
6.80111
6.85734
6.91726
6.98087
7.04815
7.11907
7.19363
7.27178
7.35351
7.43876
7.52752
7.61972
7.71534
7.81431
7.91659
8.02212
8.13086
8.24272
8.35767
8.47562
8.59652
8.7203
8.84689
8.97621
9.1082
9.24278
9.37987
9.5194
9.6613
9.80548
9.95188
10.1004
10.251
10.4035
10.558
10.7142
10.8722
11.0318
11.1931
11.3558
11.5199
11.6854
11.8522
12.0202
12.1893
12.3594
12.5305
12.7025
12.8753
13.0489
13.2232
13.3982
13.5736
13.7496
13.926
14.1028
14.2799
14.4572
14.6347
14.8124
14.9901
15.1679
15.3456
15.5233
15.7008
15.8781
16.0552
16.232
16.4085
16.5847
16.7604
16.9357
17.1106
17.2849
17.4586
17.6318
17.8043
17.9762
18.1473
18.3178
18.4875
18.6564
18.8246
18.9919
19.1583
19.3239
19.4886
19.6523
19.8152
19.977
20.1379
20.2978
20.4567
20.6145
20.7714
20.9271
21.0818
21.2354
21.388
21.5394
21.6897
21.8389
21.987
22.134
22.2798
22.4244
22.5679
22.7103
22.8514
22.9915
23.1303
23.268
23.4045
23.5398
23.6739
23.8069
23.9387
24.0693
24.1987
24.3269
24.454
24.5799
24.7046
24.8281
24.9504
25.0716
25.1916
25.3105
25.4282
25.5447
25.6601
25.7743
25.8873
25.9993
26.11
26.2197
26.3282
26.4356
26.5419
26.647
26.751
26.854
26.9558
27.0565
27.1562
27.2547
27.3522
27.4486
27.5439
27.6382
27.7314
27.8235
27.9146
28.0047
28.0937
28.1817
28.2687
28.3547
28.4396
28.5236
28.6065
28.6885
28.7694
28.8494
28.9284
29.0064
29.0835
29.1596
29.2347
29.3089
29.3821
29.4544
29.5258
29.5962
29.6657
29.7343
29.802
29.8688
29.9347
29.9996
30.0637
30.1269
30.1892
30.2506
30.3111
30.3708
30.4296
30.4876
30.5446
30.6009
30.6562
30.7108
30.7645
30.8173
30.8693
30.9205
30.9709
31.0204
31.0691
31.117
31.1641
31.2104
31.2558
31.3005
31.3444
31.3874
31.4297
31.4712
31.5119
31.5518
31.5909
31.6293
31.6669
31.7037
31.7397
31.7749
31.8094
31.8431
31.8761
31.9083
31.9397
31.9704
32.0003
32.0295
32.0579
32.0856
32.1125
32.1387
32.1641
32.1888
32.2128
32.236
32.2585
32.2802
32.3012
32.3214
32.341
32.3598
32.3778
32.3952
32.4118
32.4276
32.4428
32.4572
32.4709
32.4839
32.4961
32.5076
32.5184
32.5285
32.5379
32.5465
32.5544
32.5616
32.5681
32.5738
32.5789
32.5832
32.5868
32.5896
32.5918
32.5932
32.594
7.36606
7.36295
7.35672
7.34744
7.33515
7.31996
7.30196
7.28129
7.25807
7.23248
7.20467
7.17484
7.14317
7.10986
7.07512
7.03917
7.00222
6.96449
6.92618
6.88753
6.84874
6.81002
6.77158
6.73362
6.69632
6.65989
6.62451
6.59035
6.55758
6.52636
6.49686
6.46921
6.44356
6.42004
6.39879
6.37992
6.36356
6.3498
6.33875
6.33052
6.32519
6.32285
6.32359
6.32747
6.33458
6.34498
6.35873
6.37589
6.39652
6.42064
6.44832
6.47959
6.51447
6.55299
6.59518
6.64104
6.69059
6.74383
6.80076
6.86138
6.92568
6.99364
7.06525
7.14048
7.2193
7.30169
7.3876
7.47701
7.56987
7.66612
7.76574
7.86865
7.97481
8.08417
8.19666
8.31221
8.43078
8.55228
8.67665
8.80383
8.93373
9.0663
9.20145
9.33911
9.4792
9.62165
9.76638
9.9133
10.0624
10.2134
10.3665
10.5215
10.6782
10.8367
10.9968
11.1585
11.3217
11.4863
11.6522
11.8194
11.9878
12.1573
12.3279
12.4994
12.6718
12.845
13.019
13.1936
13.3689
13.5447
13.7211
13.8978
14.0749
14.2523
14.4299
14.6077
14.7856
14.9637
15.1417
15.3196
15.4975
15.6753
15.8528
16.0301
16.2072
16.3839
16.5602
16.7361
16.9116
17.0866
17.2611
17.435
17.6082
17.7809
17.9529
18.1242
18.2948
18.4646
18.6336
18.8018
18.9692
19.1357
19.3014
19.4661
19.6299
19.7928
19.9547
20.1156
20.2756
20.4345
20.5923
20.7492
20.905
21.0597
21.2133
21.3658
21.5172
21.6675
21.8167
21.9648
22.1117
22.2575
22.4021
22.5456
22.6879
22.829
22.969
23.1078
23.2454
23.3818
23.5171