/*--------------------------------*- C++ -*----------------------------------*\
| =========                 |                                                 |
| \\      /  F ield         | OpenFOAM: The Open Source CFD Toolbox           |
|  \\    /   O peration     | Version:  2212                                  |
|   \\  /    A nd           | Website:  www.openfoam.com                      |
|    \\/     M anipulation  |                                                 |
\*---------------------------------------------------------------------------*/
FoamFile
{
    version     2.0;
    format      ascii;
    arch        "LSB;label=32;scalar=64";
    class       volScalarField;
    location    "260";
    object      p_rgh;
}
// * * * * * * * * * * * * * * * * * * * * * * * * * * * * * * * * * * * * * //

dimensions      [1 -1 -2 0 0 0 0];

internalField   nonuniform List<scalar> 
204800
(
7.95258
7.94948
7.94364
7.93505
7.92369
7.90962
7.89286
7.87349
7.85157
7.82719
7.80046
7.7715
7.74043
7.70742
7.67262
7.63622
7.59841
7.55939
7.51937
7.47858
7.43724
7.39557
7.3538
7.31217
7.27088
7.23017
7.19024
7.1513
7.11356
7.07719
7.04239
7.00933
6.97817
6.94907
6.92219
6.89766
6.87562
6.85619
6.83949
6.82564
6.81472
6.80685
6.80211
6.80058
6.80234
6.80747
6.81601
6.82804
6.84361
6.86275
6.88552
6.91194
6.94204
6.97586
7.0134
7.05468
7.09971
7.14849
7.20102
7.25729
7.31729
7.38101
7.44842
7.51951
7.59424
7.67259
7.75451
7.83997
7.92893
8.02134
8.11715
8.21631
8.31877
8.42447
8.53335
8.64535
8.7604
8.87845
8.99942
9.12324
9.24984
9.37916
9.51111
9.64563
9.78264
9.92206
10.0638
10.2078
10.354
10.5023
10.6526
10.8049
10.959
11.115
11.2726
11.4319
11.5927
11.755
11.9187
12.0837
12.25
12.4174
12.586
12.7556
12.9261
13.0976
13.2698
13.4428
13.6165
13.7908
13.9656
14.141
14.3167
14.4928
14.6692
14.8459
15.0227
15.1997
15.3767
15.5538
15.7308
15.9078
16.0846
16.2613
16.4377
16.6138
16.7896
16.9651
17.1402
17.3148
17.489
17.6626
17.8357
18.0082
18.1801
18.3514
18.522
18.6918
18.8609
19.0293
19.1968
19.3636
19.5295
19.6945
19.8586
20.0219
20.1842
20.3456
20.506
20.6654
20.8238
20.9812
21.1376
21.2929
21.4472
21.6005
21.7526
21.9037
22.0536
22.2025
22.3502
22.4969
22.6424
22.7867
22.93
23.072
23.213
23.3527
23.4913
23.6288
23.7651
23.9002
24.0342
24.1669
24.2986
24.429
24.5583
24.6864
24.8133
24.9391
25.0637
25.1871
25.3094
25.4305
25.5504
25.6692
25.7868
25.9033
26.0187
26.1329
26.2459
26.3578
26.4686
26.5782
26.6868
26.7942
26.9004
27.0056
27.1097
27.2127
27.3145
27.4153
27.515
27.6136
27.7111
27.8076
27.903
27.9973
28.0906
28.1828
28.274
28.3642
28.4533
28.5414
28.6284
28.7145
28.7995
28.8835
28.9666
29.0486
29.1296
29.2097
29.2888
29.3669
29.444
29.5202
29.5954
29.6697
29.743
29.8154
29.8868
29.9573
30.0269
30.0956
30.1633
30.2301
30.2961
30.3611
30.4252
30.4884
30.5508
30.6122
30.6728
30.7325
30.7913
30.8493
30.9063
30.9626
31.0179
31.0725
31.1261
31.179
31.2309
31.2821
31.3324
31.3819
31.4305
31.4784
31.5254
31.5716
31.6169
31.6615
31.7053
31.7482
31.7904
31.8317
31.8723
31.912
31.951
31.9892
32.0266
32.0632
32.099
32.1341
32.1684
32.2019
32.2346
32.2665
32.2977
32.3282
32.3578
32.3867
32.4148
32.4422
32.4688
32.4947
32.5198
32.5441
32.5677
32.5906
32.6127
32.634
32.6546
32.6745
32.6936
32.7119
32.7296
32.7464
32.7626
32.778
32.7927
32.8066
32.8198
32.8322
32.8439
32.8549
32.8652
32.8747
32.8834
32.8915
32.8988
32.9054
32.9112
32.9163
32.9207
32.9244
32.9273
32.9295
32.931
32.9317
7.97546
7.97203
7.96552
7.95578
7.94294
7.92705
7.90819
7.88649
7.86206
7.83507
7.80567
7.77403
7.74035
7.70481
7.66762
7.62899
7.58913
7.54826
7.50661
7.46438
7.42181
7.3791
7.33648
7.29415
7.25232
7.21119
7.17095
7.13179
7.09391
7.05747
7.02264
6.98959
6.95848
6.92945
6.90265
6.87821
6.85626
6.83693
6.82033
6.80657
6.79575
6.78797
6.7833
6.78185
6.78368
6.78887
6.79747
6.80954
6.82515
6.84432
6.86711
6.89355
6.92366
6.95748
6.99501
7.03628
7.08128
7.13003
7.18252
7.23875
7.2987
7.36236
7.4297
7.50072
7.57537
7.65362
7.73545
7.82081
7.90965
8.00194
8.09763
8.19666
8.29898
8.40454
8.51327
8.62511
8.74
8.85788
8.97867
9.10231
9.22873
9.35786
9.48961
9.62393
9.76073
9.89993
10.0415
10.1853
10.3312
10.4793
10.6294
10.7814
10.9353
11.091
11.2484
11.4074
11.5679
11.73
11.8934
12.0582
12.2242
12.3913
12.5596
12.7289
12.8992
13.0703
13.2423
13.415
13.5884
13.7624
13.9369
14.1119
14.2874
14.4632
14.6393
14.8157
14.9922
15.1689
15.3456
15.5224
15.6991
15.8757
16.0522
16.2286
16.4047
16.5805
16.756
16.9312
17.1059
17.2803
17.4541
17.6275
17.8002
17.9724
18.144
18.315
18.4852
18.6548
18.8236
18.9916
19.1589
19.3253
19.4909
19.6556
19.8195
19.9824
20.1444
20.3055
20.4656
20.6247
20.7829
20.94
21.0961
21.2511
21.4051
21.5581
21.7099
21.8607
22.0104
22.159
22.3064
22.4528
22.598
22.7421
22.885
23.0269
23.1675
23.307
23.4454
23.5826
23.7186
23.8534
23.9871
24.1197
24.251
24.3812
24.5103
24.6381
24.7648
24.8903
25.0147
25.1379
25.2599
25.3808
25.5005
25.6191
25.7365
25.8527
25.9678
26.0818
26.1946
26.3063
26.4169
26.5263
26.6346
26.7418
26.8479
26.9529
27.0567
27.1595
27.2612
27.3618
27.4612
27.5597
27.657
27.7533
27.8485
27.9426
28.0357
28.1278
28.2188
28.3088
28.3977
28.4856
28.5725
28.6584
28.7432
28.8271
28.91
28.9918
29.0727
29.1526
29.2315
29.3095
29.3865
29.4625
29.5376
29.6117
29.6849
29.7571
29.8284
29.8988
29.9682
30.0367
30.1044
30.171
30.2368
30.3017
30.3657
30.4288
30.491
30.5524
30.6128
30.6724
30.7311
30.7889
30.8459
30.902
30.9573
31.0117
31.0652
31.118
31.1698
31.2209
31.2711
31.3205
31.369
31.4168
31.4637
31.5098
31.5551
31.5996
31.6432
31.6861
31.7282
31.7694
31.8099
31.8496
31.8885
31.9266
31.9639
32.0005
32.0362
32.0712
32.1054
32.1388
32.1715
32.2034
32.2345
32.2649
32.2945
32.3233
32.3514
32.3787
32.4052
32.4311
32.4561
32.4804
32.504
32.5268
32.5488
32.5701
32.5907
32.6105
32.6296
32.6479
32.6655
32.6823
32.6984
32.7138
32.7284
32.7423
32.7555
32.7679
32.7796
32.7906
32.8008
32.8103
32.819
32.8271
32.8344
32.8409
32.8468
32.8519
32.8563
32.8599
32.8628
32.865
32.8665
32.8672
7.95269
7.94937
7.9429
7.93326
7.92052
7.90475
7.88602
7.86448
7.84023
7.81344
7.78425
7.75284
7.7194
7.68411
7.64718
7.60882
7.56923
7.52864
7.48727
7.44532
7.40303
7.36061
7.31826
7.2762
7.23464
7.19377
7.15379
7.11488
7.07724
7.04104
7.00644
6.97361
6.94272
6.9139
6.8873
6.86306
6.84131
6.82217
6.80575
6.79217
6.78152
6.77391
6.76941
6.76812
6.77011
6.77545
6.7842
6.79643
6.81218
6.8315
6.85443
6.881
6.91125
6.9452
6.98286
7.02426
7.06939
7.11827
7.17088
7.22723
7.2873
7.35108
7.41854
7.48967
7.56443
7.6428
7.72473
7.8102
7.89915
7.99155
8.08734
8.18648
8.2889
8.39456
8.50338
8.61532
8.73031
8.84828
8.96917
9.0929
9.21941
9.34862
9.48046
9.61486
9.75175
9.89104
10.0327
10.1765
10.3226
10.4707
10.6209
10.773
10.9269
11.0827
11.2401
11.3992
11.5598
11.7219
11.8854
12.0502
12.2163
12.3835
12.5518
12.7212
12.8915
13.0627
13.2347
13.4074
13.5809
13.7549
13.9295
14.1045
14.28
14.4559
14.632
14.8084
14.985
15.1616
15.3384
15.5152
15.6919
15.8686
16.0451
16.2215
16.3976
16.5734
16.7489
16.9241
17.0989
17.2732
17.4471
17.6204
17.7932
17.9654
18.137
18.3079
18.4782
18.6477
18.8165
18.9845
19.1518
19.3182
19.4838
19.6485
19.8123
19.9753
20.1373
20.2983
20.4584
20.6175
20.7756
20.9327
21.0888
21.2438
21.3978
21.5507
21.7026
21.8533
22.003
22.1515
22.299
22.4453
22.5905
22.7346
22.8775
23.0193
23.1599
23.2994
23.4377
23.5749
23.7108
23.8457
23.9793
24.1118
24.2432
24.3733
24.5023
24.6302
24.7568
24.8823
25.0066
25.1298
25.2518
25.3726
25.4923
25.6108
25.7282
25.8444
25.9595
26.0734
26.1862
26.2979
26.4084
26.5178
26.6261
26.7333
26.8393
26.9442
27.0481
27.1508
27.2524
27.353
27.4525
27.5508
27.6481
27.7444
27.8396
27.9337
28.0267
28.1187
28.2097
28.2997
28.3886
28.4764
28.5633
28.6491
28.734
28.8178
28.9006
28.9825
29.0633
29.1432
29.2221
29.3
29.377
29.453
29.528
29.6021
29.6752
29.7475
29.8187
29.8891
29.9585
30.027
30.0946
30.1612
30.227
30.2918
30.3558
30.4189
30.4811
30.5424
30.6028
30.6623
30.721
30.7788
30.8358
30.8919
30.9471
31.0015
31.055
31.1077
31.1596
31.2106
31.2608
31.3102
31.3587
31.4064
31.4533
31.4994
31.5447
31.5891
31.6328
31.6756
31.7177
31.7589
31.7994
31.839
31.8779
31.916
31.9533
31.9898
32.0256
32.0605
32.0947
32.1281
32.1608
32.1927
32.2238
32.2541
32.2837
32.3125
32.3406
32.3679
32.3944
32.4202
32.4453
32.4696
32.4931
32.5159
32.5379
32.5592
32.5798
32.5996
32.6186
32.637
32.6545
32.6714
32.6875
32.7028
32.7175
32.7314
32.7445
32.7569
32.7686
32.7796
32.7898
32.7993
32.808
32.8161
32.8234
32.8299
32.8357
32.8409
32.8452
32.8489
32.8518
32.854
32.8554
32.8562
7.94177
7.93828
7.93143
7.9212
7.90769
7.89098
7.87119
7.84845
7.82293
7.79481
7.76426
7.7315
7.69673
7.66018
7.62206
7.5826
7.54201
7.50054
7.4584
7.4158
7.37298
7.33013
7.28747
7.24519
7.2035
7.16257
7.1226
7.08377
7.04625
7.0102
6.9758
6.94319
6.91253
6.88396
6.85762
6.83364
6.81215
6.79327
6.77711
6.76378
6.75338
6.74601
6.74175
6.74069
6.7429
6.74845
6.75741
6.76983
6.78577
6.80527
6.82837
6.85511
6.88552
6.91962
6.95742
6.99895
7.04422
7.09321
7.14594
7.2024
7.26257
7.32644
7.39399
7.4652
7.54004
7.61847
7.70047
7.786
7.875
7.96744
8.06327
8.16244
8.26489
8.37056
8.47941
8.59135
8.70635
8.82432
8.94519
9.06891
9.1954
9.32459
9.45641
9.59077
9.72762
9.86686
10.0084
10.1522
10.2982
10.4463
10.5964
10.7484
10.9023
11.058
11.2153
11.3743
11.5348
11.6968
11.8602
12.0249
12.1909
12.358
12.5262
12.6954
12.8656
13.0367
13.2085
13.3811
13.5544
13.7283
13.9028
14.0777
14.253
14.4287
14.6047
14.7809
14.9573
15.1338
15.3104
15.487
15.6635
15.84
16.0164
16.1925
16.3685
16.5441
16.7195
16.8944
17.069
17.2432
17.4168
17.59
17.7625
17.9345
18.1059
18.2767
18.4467
18.6161
18.7846
18.9525
19.1195
19.2857
19.4511
19.6156
19.7792
19.942
20.1037
20.2646
20.4245
20.5834
20.7413
20.8982
21.054
21.2088
21.3626
21.5153
21.667
21.8175
21.9669
22.1153
22.2625
22.4086
22.5536
22.6975
22.8402
22.9818
23.1222
23.2615
23.3996
23.5366
23.6724
23.807
23.9405
24.0728
24.2039
24.3339
24.4627
24.5903
24.7168
24.842
24.9662
25.0892
25.211
25.3316
25.4511
25.5694
25.6866
25.8027
25.9176
26.0313
26.1439
26.2554
26.3658
26.475
26.5831
26.6901
26.796
26.9007
27.0044
27.1069
27.2084
27.3088
27.4081
27.5063
27.6035
27.6995
27.7946
27.8885
27.9814
28.0733
28.1641
28.2539
28.3426
28.4304
28.5171
28.6028
28.6875
28.7712
28.8539
28.9356
29.0163
29.096
29.1748
29.2526
29.3294
29.4053
29.4802
29.5541
29.6272
29.6992
29.7704
29.8406
29.9099
29.9783
30.0457
30.1123
30.1779
30.2427
30.3065
30.3695
30.4316
30.4928
30.5531
30.6125
30.6711
30.7288
30.7857
30.8417
30.8968
30.9511
31.0045
31.0571
31.1089
31.1598
31.2099
31.2592
31.3077
31.3553
31.4021
31.4481
31.4933
31.5377
31.5813
31.624
31.666
31.7072
31.7476
31.7872
31.826
31.864
31.9012
31.9377
31.9734
32.0083
32.0424
32.0757
32.1083
32.1402
32.1712
32.2015
32.231
32.2598
32.2878
32.3151
32.3416
32.3673
32.3923
32.4166
32.44
32.4628
32.4848
32.5061
32.5266
32.5463
32.5654
32.5837
32.6012
32.618
32.6341
32.6494
32.664
32.6779
32.691
32.7034
32.7151
32.726
32.7362
32.7457
32.7544
32.7624
32.7697
32.7763
32.7821
32.7872
32.7916
32.7952
32.7981
32.8003
32.8017
32.8025
7.89814
7.89474
7.88801
7.87796
7.86468
7.84825
7.82877
7.8064
7.78128
7.7536
7.72351
7.69124
7.65697
7.62093
7.58333
7.54439
7.50433
7.46338
7.42175
7.37967
7.33735
7.295
7.25282
7.21102
7.1698
7.12934
7.08982
7.05143
7.01434
6.97873
6.94474
6.91254
6.88228
6.8541
6.82815
6.80455
6.78343
6.76491
6.74911
6.73613
6.72607
6.71903
6.7151
6.71436
6.71688
6.72274
6.732
6.74471
6.76094
6.78073
6.80411
6.83113
6.86181
6.89618
6.93425
6.97604
7.02156
7.07081
7.12379
7.1805
7.24091
7.30503
7.37282
7.44427
7.51934
7.59801
7.68024
7.76599
7.85522
7.94788
8.04393
8.14331
8.24598
8.35187
8.46092
8.57308
8.68827
8.80644
8.92752
9.05144
9.17812
9.3075
9.43951
9.57406
9.71109
9.85051
9.99226
10.1362
10.2824
10.4306
10.5809
10.7331
10.8871
11.0429
11.2005
11.3596
11.5203
11.6824
11.8459
12.0108
12.1768
12.3441
12.5124
12.6818
12.8521
13.0232
13.1952
13.3679
13.5413
13.7153
13.8898
14.0649
14.2403
14.416
14.5921
14.7684
14.9449
15.1215
15.2981
15.4748
15.6514
15.8279
16.0044
16.1806
16.3565
16.5322
16.7076
16.8827
17.0573
17.2314
17.4051
17.5783
17.7509
17.9229
18.0943
18.2651
18.4352
18.6045
18.7731
18.9409
19.108
19.2742
19.4396
19.6041
19.7677
19.9304
20.0922
20.253
20.4129
20.5718
20.7297
20.8866
21.0424
21.1972
21.3509
21.5036
21.6552
21.8058
21.9552
22.1035
22.2507
22.3968
22.5417
22.6856
22.8282
22.9698
23.1102
23.2494
23.3875
23.5244
23.6601
23.7947
23.9282
24.0604
24.1915
24.3214
24.4502
24.5778
24.7042
24.8294
24.9535
25.0764
25.1982
25.3188
25.4382
25.5565
25.6737
25.7897
25.9045
26.0182
26.1308
26.2422
26.3525
26.4617
26.5697
26.6766
26.7825
26.8872
26.9908
27.0933
27.1947
27.295
27.3943
27.4925
27.5895
27.6856
27.7805
27.8744
27.9673
28.0591
28.1499
28.2396
28.3283
28.416
28.5027
28.5883
28.6729
28.7566
28.8392
28.9209
29.0015
29.0812
29.1599
29.2377
29.3144
29.3903
29.4651
29.539
29.612
29.684
29.7551
29.8253
29.8946
29.9629
30.0303
30.0968
30.1624
30.2271
30.2909
30.3539
30.4159
30.477
30.5373
30.5967
30.6553
30.7129
30.7697
30.8257
30.8808
30.935
30.9884
31.041
31.0927
31.1436
31.1937
31.2429
31.2914
31.339
31.3857
31.4317
31.4768
31.5212
31.5647
31.6075
31.6494
31.6906
31.7309
31.7705
31.8093
31.8473
31.8845
31.9209
31.9565
31.9914
32.0255
32.0589
32.0914
32.1232
32.1542
32.1845
32.214
32.2428
32.2708
32.298
32.3245
32.3502
32.3752
32.3994
32.4229
32.4456
32.4676
32.4888
32.5093
32.5291
32.5481
32.5664
32.5839
32.6007
32.6168
32.6321
32.6467
32.6605
32.6737
32.686
32.6977
32.7086
32.7188
32.7283
32.737
32.745
32.7523
32.7588
32.7647
32.7697
32.7741
32.7777
32.7807
32.7828
32.7843
32.785
7.86014
7.85667
7.84978
7.8395
7.8259
7.8091
7.78921
7.76638
7.74077
7.71258
7.68199
7.64922
7.61448
7.57799
7.53999
7.5007
7.46035
7.41916
7.37736
7.33517
7.2928
7.25047
7.20837
7.1667
7.12566
7.08542
7.04618
7.0081
6.97134
6.93609
6.90248
6.87068
6.84083
6.81307
6.78754
6.76437
6.74368
6.72558
6.7102
6.69763
6.68798
6.68133
6.67779
6.67743
6.68033
6.68655
6.69616
6.70923
6.7258
6.74591
6.76962
6.79695
6.82794
6.8626
6.90097
6.94304
6.98884
7.03836
7.09161
7.14857
7.20924
7.27359
7.34163
7.4133
7.48861
7.5675
7.64994
7.7359
7.82533
7.9182
8.01444
8.11401
8.21686
8.32293
8.43215
8.54447
8.65983
8.77816
8.89939
9.02345
9.15028
9.27979
9.41192
9.5466
9.68375
9.82328
9.96514
10.1092
10.2555
10.4038
10.5542
10.7064
10.8605
11.0164
11.174
11.3332
11.4939
11.6561
11.8197
11.9846
12.1507
12.318
12.4863
12.6557
12.826
12.9972
13.1692
13.3419
13.5153
13.6892
13.8637
14.0387
14.2141
14.3899
14.5659
14.7421
14.9186
15.0951
15.2717
15.4483
15.6249
15.8014
15.9777
16.1539
16.3298
16.5054
16.6807
16.8556
17.0302
17.2042
17.3778
17.5509
17.7234
17.8953
18.0666
18.2373
18.4072
18.5765
18.745
18.9127
19.0796
19.2457
19.4109
19.5753
19.7388
19.9014
20.063
20.2237
20.3835
20.5422
20.7
20.8567
21.0124
21.167
21.3206
21.4732
21.6246
21.775
21.9243
22.0724
22.2195
22.3654
22.5102
22.6539
22.7964
22.9378
23.078
23.2171
23.355
23.4918
23.6274
23.7618
23.8951
24.0272
24.1582
24.2879
24.4165
24.5439
24.6702
24.7953
24.9192
25.042
25.1636
25.284
25.4033
25.5215
25.6385
25.7543
25.869
25.9825
26.0949
26.2062
26.3164
26.4254
26.5333
26.6401
26.7458
26.8503
26.9538
27.0562
27.1574
27.2576
27.3567
27.4547
27.5517
27.6476
27.7424
27.8362
27.9289
28.0206
28.1112
28.2008
28.2894
28.3769
28.4635
28.549
28.6335
28.717
28.7995
28.8811
28.9616
29.0412
29.1198
29.1974
29.274
29.3497
29.4245
29.4983
29.5711
29.6431
29.7141
29.7841
29.8533
29.9215
29.9888
30.0552
30.1207
30.1853
30.249
30.3118
30.3738
30.4348
30.495
30.5543
30.6127
30.6703
30.727
30.7829
30.8379
30.8921
30.9454
30.9979
31.0495
31.1003
31.1503
31.1995
31.2478
31.2953
31.342
31.3879
31.433
31.4773
31.5207
31.5634
31.6053
31.6464
31.6867
31.7262
31.7649
31.8028
31.8399
31.8763
31.9119
31.9467
31.9808
32.014
32.0466
32.0783
32.1093
32.1395
32.169
32.1977
32.2256
32.2528
32.2792
32.3049
32.3298
32.354
32.3775
32.4002
32.4221
32.4433
32.4638
32.4835
32.5025
32.5207
32.5382
32.555
32.571
32.5863
32.6009
32.6147
32.6278
32.6402
32.6518
32.6627
32.6729
32.6823
32.6911
32.6991
32.7063
32.7129
32.7187
32.7237
32.7281
32.7317
32.7346
32.7368
32.7383
32.739
7.79856
7.79519
7.78845
7.7784
7.76511
7.74869
7.72923
7.70689
7.68183
7.65422
7.62425
7.59212
7.55804
7.52223
7.48491
7.44631
7.40663
7.36612
7.32499
7.28346
7.24174
7.20005
7.15858
7.11753
7.07709
7.03746
6.99881
6.96131
6.92514
6.89046
6.85742
6.82619
6.79689
6.76968
6.7447
6.72206
6.70189
6.68432
6.66945
6.65739
6.64823
6.64208
6.63902
6.63913
6.64249
6.64917
6.65924
6.67274
6.68974
6.71029
6.73442
6.76216
6.79356
6.82863
6.8674
6.90987
6.95606
7.00597
7.05959
7.11693
7.17798
7.24271
7.31111
7.38315
7.45881
7.53806
7.62086
7.70717
7.79695
7.89016
7.98674
8.08665
8.18984
8.29624
8.40579
8.51844
8.63412
8.75276
8.87431
8.99868
9.12582
9.25564
9.38807
9.52304
9.66048
9.80031
9.94245
10.0868
10.2333
10.382
10.5326
10.6851
10.8395
10.9956
11.1534
11.3129
11.4738
11.6363
11.8001
11.9652
12.1315
12.299
12.4676
12.6371
12.8076
12.979
13.1512
13.3241
13.4976
13.6718
13.8465
14.0216
14.1972
14.3731
14.5492
14.7256
14.9022
15.0789
15.2556
15.4324
15.609
15.7856
15.9621
16.1383
16.3143
16.49
16.6654
16.8404
17.0151
17.1892
17.3629
17.536
17.7086
17.8806
18.0519
18.2226
18.3926
18.5619
18.7304
18.8982
19.0651
19.2312
19.3965
19.5609
19.7244
19.887
20.0487
20.2094
20.3691
20.5279
20.6856
20.8423
20.998
21.1527
21.3063
21.4588
21.6102
21.7606
21.9098
22.058
22.205
22.3509
22.4957
22.6393
22.7818
22.9232
23.0634
23.2024
23.3403
23.477
23.6126
23.7469
23.8802
24.0122
24.1431
24.2728
24.4014
24.5287
24.655
24.78
24.9039
25.0266
25.1481
25.2685
25.3878
25.5058
25.6228
25.7385
25.8532
25.9667
26.079
26.1902
26.3003
26.4093
26.5171
26.6238
26.7294
26.8339
26.9373
27.0396
27.1408
27.241
27.34
27.438
27.5349
27.6307
27.7254
27.8191
27.9118
28.0034
28.094
28.1835
28.272
28.3595
28.446
28.5314
28.6159
28.6993
28.7818
28.8632
28.9437
29.0232
29.1018
29.1793
29.2559
29.3315
29.4062
29.48
29.5528
29.6246
29.6956
29.7656
29.8346
29.9028
29.9701
30.0364
30.1018
30.1664
30.23
30.2928
30.3547
30.4157
30.4758
30.5351
30.5935
30.651
30.7076
30.7635
30.8184
30.8725
30.9258
30.9782
31.0298
31.0806
31.1305
31.1796
31.2279
31.2754
31.3221
31.3679
31.413
31.4572
31.5006
31.5432
31.5851
31.6261
31.6664
31.7058
31.7445
31.7824
31.8195
31.8558
31.8914
31.9262
31.9602
31.9934
32.0259
32.0576
32.0886
32.1188
32.1482
32.1769
32.2048
32.2319
32.2583
32.284
32.3089
32.3331
32.3565
32.3792
32.4011
32.4223
32.4427
32.4624
32.4814
32.4996
32.5171
32.5338
32.5499
32.5651
32.5797
32.5935
32.6066
32.6189
32.6306
32.6415
32.6516
32.6611
32.6698
32.6778
32.685
32.6915
32.6973
32.7024
32.7068
32.7104
32.7133
32.7155
32.7169
32.7176
7.73896
7.73558
7.72882
7.71875
7.70543
7.68897
7.66948
7.64712
7.62203
7.59441
7.56444
7.53233
7.49828
7.46253
7.42529
7.38679
7.34726
7.30692
7.26599
7.2247
7.18325
7.14186
7.10072
7.06004
7.02
6.98079
6.94259
6.90558
6.8699
6.83574
6.80323
6.77254
6.74381
6.71716
6.69274
6.67068
6.65109
6.63408
6.61978
6.60828
6.59968
6.59407
6.59155
6.5922
6.59608
6.60327
6.61384
6.62785
6.64534
6.66636
6.69096
6.71917
6.75102
6.78653
6.82574
6.86864
6.91525
6.96558
7.01962
7.07736
7.1388
7.20393
7.27271
7.34514
7.42118
7.50079
7.58396
7.67063
7.76077
7.85432
7.95125
8.0515
8.15502
8.26175
8.37163
8.48459
8.60059
8.71954
8.84139
8.96606
9.09348
9.22359
9.3563
9.49155
9.62926
9.76935
9.91174
10.0564
10.2031
10.352
10.5028
10.6556
10.8102
10.9665
11.1246
11.2842
11.4454
11.608
11.772
11.9373
12.1038
12.2714
12.4401
12.6099
12.7805
12.952
13.1243
13.2974
13.471
13.6453
13.8201
13.9953
14.171
14.347
14.5232
14.6997
14.8763
15.0531
15.2299
15.4067
15.5834
15.76
15.9365
16.1128
16.2888
16.4646
16.64
16.815
16.9896
17.1638
17.3374
17.5105
17.6831
17.8551
18.0264
18.1971
18.367
18.5363
18.7047
18.8725
19.0394
19.2054
19.3707
19.535
19.6984
19.861
20.0226
20.1832
20.3429
20.5015
20.6592
20.8158
20.9714
21.126
21.2795
21.4319
21.5833
21.7335
21.8827
22.0307
22.1776
22.3234
22.4681
22.6116
22.754
22.8953
23.0353
23.1743
23.312
23.4486
23.5841
23.7183
23.8514
23.9834
24.1141
24.2437
24.3722
24.4994
24.6255
24.7504
24.8742
24.9967
25.1182
25.2384
25.3575
25.4755
25.5923
25.7079
25.8224
25.9358
26.048
26.1591
26.2691
26.3779
26.4856
26.5922
26.6977
26.8021
26.9053
27.0075
27.1086
27.2086
27.3075
27.4053
27.5021
27.5978
27.6924
27.786
27.8786
27.97
28.0605
28.1499
28.2383
28.3257
28.412
28.4974
28.5817
28.665
28.7474
28.8287
28.9091
28.9885
29.0669
29.1443
29.2208
29.2963
29.3709
29.4446
29.5172
29.589
29.6598
29.7297
29.7987
29.8668
29.9339
30.0002
30.0655
30.13
30.1935
30.2562
30.318
30.3789
30.4389
30.4981
30.5564
30.6138
30.6704
30.7261
30.781
30.835
30.8882
30.9406
30.9921
31.0428
31.0926
31.1417
31.1899
31.2373
31.2839
31.3296
31.3746
31.4188
31.4621
31.5047
31.5465
31.5874
31.6276
31.667
31.7056
31.7435
31.7805
31.8168
31.8523
31.887
31.921
31.9542
31.9866
32.0183
32.0491
32.0793
32.1087
32.1373
32.1652
32.1923
32.2186
32.2443
32.2691
32.2933
32.3166
32.3393
32.3612
32.3823
32.4027
32.4224
32.4413
32.4595
32.477
32.4937
32.5097
32.5249
32.5395
32.5533
32.5663
32.5787
32.5903
32.6011
32.6113
32.6207
32.6294
32.6374
32.6446
32.6511
32.6569
32.662
32.6663
32.67
32.6729
32.675
32.6765
32.6772
7.66224
7.65895
7.65236
7.64255
7.62956
7.61352
7.59451
7.57269
7.5482
7.52122
7.49193
7.46052
7.42721
7.3922
7.35571
7.31796
7.27918
7.23959
7.1994
7.15883
7.1181
7.07741
7.03698
6.99699
6.95763
6.91911
6.88158
6.84524
6.81023
6.77674
6.74491
6.71488
6.68682
6.66084
6.63709
6.61568
6.59675
6.58041
6.56675
6.5559
6.54794
6.54297
6.54107
6.54233
6.54682
6.55462
6.56578
6.58037
6.59844
6.62003
6.64519
6.67395
6.70635
6.74242
6.78216
6.82559
6.87273
6.92358
6.97813
7.03639
7.09834
7.16396
7.23325
7.30617
7.3827
7.4628
7.54645
7.6336
7.72422
7.81825
7.91564
8.01636
8.12034
8.22752
8.33785
8.45127
8.56771
8.6871
8.80939
8.93449
9.06235
9.19288
9.32601
9.46167
9.59979
9.74029
9.88308
10.0281
10.1753
10.3245
10.4757
10.6288
10.7838
10.9405
11.0989
11.2589
11.4204
11.5834
11.7477
11.9133
12.0801
12.2481
12.4171
12.5871
12.758
12.9298
13.1024
13.2757
13.4497
13.6242
13.7992
13.9747
14.1506
14.3268
14.5033
14.68
14.8568
15.0338
15.2107
15.3877
15.5646
15.7414
15.9181
16.0945
16.2707
16.4466
16.6221
16.7973
16.9721
17.1463
17.3201
17.4934
17.666
17.8381
18.0095
18.1803
18.3503
18.5196
18.6882
18.856
19.0229
19.1891
19.3544
19.5187
19.6822
19.8448
20.0064
20.1671
20.3268
20.4855
20.6432
20.7998
20.9555
21.11
21.2635
21.416
21.5673
21.7176
21.8667
22.0147
22.1616
22.3074
22.4521
22.5956
22.7379
22.8792
23.0192
23.1581
23.2958
23.4324
23.5678
23.702
23.8351
23.967
24.0977
24.2272
24.3556
24.4828
24.6089
24.7337
24.8574
24.9799
25.1013
25.2215
25.3405
25.4584
25.5752
25.6908
25.8052
25.9185
26.0306
26.1417
26.2516
26.3603
26.468
26.5745
26.6799
26.7842
26.8874
26.9895
27.0905
27.1905
27.2893
27.3871
27.4837
27.5794
27.6739
27.7674
27.8599
27.9513
28.0417
28.131
28.2194
28.3067
28.3929
28.4782
28.5625
28.6457
28.728
28.8093
28.8896
28.9689
29.0472
29.1246
29.201
29.2765
29.351
29.4245
29.4972
29.5688
29.6396
29.7094
29.7783
29.8463
29.9134
29.9796
30.0449
30.1093
30.1728
30.2354
30.2971
30.3579
30.4179
30.477
30.5352
30.5926
30.6491
30.7048
30.7596
30.8136
30.8667
30.919
30.9705
31.0211
31.0709
31.1199
31.1681
31.2154
31.2619
31.3077
31.3526
31.3967
31.44
31.4825
31.5242
31.5652
31.6053
31.6447
31.6832
31.721
31.758
31.7943
31.8297
31.8644
31.8983
31.9315
31.9639
31.9955
32.0264
32.0565
32.0858
32.1144
32.1422
32.1693
32.1957
32.2212
32.2461
32.2702
32.2935
32.3161
32.338
32.3591
32.3795
32.3991
32.4181
32.4362
32.4537
32.4704
32.4863
32.5016
32.5161
32.5299
32.5429
32.5552
32.5668
32.5777
32.5878
32.5972
32.6059
32.6139
32.6211
32.6276
32.6334
32.6385
32.6428
32.6464
32.6493
32.6515
32.6529
32.6537
7.58541
7.58215
7.57562
7.5659
7.55303
7.53713
7.5183
7.49668
7.47242
7.44569
7.41667
7.38556
7.35256
7.31788
7.28174
7.24436
7.20595
7.16675
7.12698
7.08684
7.04656
7.00634
6.96638
6.92689
6.88806
6.85007
6.8131
6.77733
6.74292
6.71004
6.67883
6.64945
6.62203
6.59672
6.57365
6.55293
6.53468
6.51902
6.50606
6.4959
6.48862
6.48434
6.48312
6.48505
6.49021
6.49866
6.51047
6.5257
6.5444
6.56662
6.59239
6.62176
6.65476
6.69141
6.73174
6.77575
6.82346
6.87487
6.92998
6.98879
7.05128
7.11745
7.18727
7.26072
7.33777
7.41839
7.50255
7.59021
7.68133
7.77585
7.87375
7.97495
8.07941
8.18707
8.29787
8.41176
8.52866
8.64851
8.77124
8.89679
9.02509
9.15605
9.28961
9.42569
9.56423
9.70513
9.84833
9.99374
10.1413
10.2909
10.4425
10.596
10.7513
10.9084
11.0671
11.2275
11.3893
11.5526
11.7172
11.8831
12.0502
12.2185
12.3878
12.5581
12.7293
12.9014
13.0742
13.2478
13.4219
13.5967
13.772
13.9477
14.1237
14.3002
14.4768
14.6537
14.8307
15.0078
15.185
15.3621
15.5392
15.7161
15.8929
16.0695
16.2458
16.4218
16.5974
16.7727
16.9475
17.1219
17.2957
17.469
17.6418
17.8139
17.9854
18.1562
18.3263
18.4956
18.6642
18.832
18.999
19.1652
19.3304
19.4948
19.6583
19.8209
19.9825
20.1432
20.3028
20.4615
20.6192
20.7758
20.9314
21.0859
21.2394
21.3918
21.5431
21.6933
21.8423
21.9903
22.1372
22.2829
22.4275
22.5709
22.7132
22.8543
22.9943
23.1331
23.2708
23.4072
23.5426
23.6767
23.8097
23.9415
24.0721
24.2015
24.3298
24.4569
24.5829
24.7076
24.8312
24.9536
25.0749
25.195
25.3139
25.4317
25.5483
25.6638
25.7781
25.8913
26.0034
26.1143
26.2241
26.3327
26.4403
26.5467
26.652
26.7562
26.8593
26.9612
27.0621
27.162
27.2607
27.3583
27.4549
27.5504
27.6449
27.7383
27.8306
27.9219
28.0122
28.1014
28.1896
28.2768
28.363
28.4481
28.5323
28.6154
28.6976
28.7788
28.859
28.9382
29.0164
29.0937
29.17
29.2453
29.3197
29.3932
29.4657
29.5373
29.608
29.6777
29.7465
29.8144
29.8814
29.9475
30.0127
30.077
30.1404
30.2029
30.2645
30.3253
30.3852
30.4442
30.5023
30.5596
30.6161
30.6716
30.7264
30.7803
30.8333
30.8855
30.9369
30.9875
31.0372
31.0861
31.1342
31.1815
31.2279
31.2736
31.3184
31.3625
31.4057
31.4482
31.4898
31.5307
31.5707
31.61
31.6485
31.6863
31.7232
31.7594
31.7948
31.8294
31.8633
31.8964
31.9287
31.9603
31.9911
32.0212
32.0505
32.079
32.1068
32.1339
32.1601
32.1857
32.2105
32.2345
32.2579
32.2804
32.3023
32.3233
32.3437
32.3633
32.3822
32.4003
32.4177
32.4344
32.4504
32.4656
32.4801
32.4938
32.5068
32.5191
32.5307
32.5416
32.5517
32.5611
32.5697
32.5777
32.5849
32.5914
32.5972
32.6022
32.6066
32.6102
32.6131
32.6152
32.6167
32.6174
7.49601
7.49284
7.48648
7.47701
7.46448
7.44899
7.43063
7.40955
7.38588
7.35979
7.33145
7.30104
7.26876
7.23483
7.19943
7.1628
7.12515
7.0867
7.04766
7.00826
6.9687
6.92919
6.88994
6.85115
6.81301
6.77572
6.73944
6.70437
6.67066
6.63848
6.60798
6.57932
6.55263
6.52805
6.50571
6.48573
6.46824
6.45333
6.44112
6.43171
6.4252
6.42166
6.4212
6.42388
6.42977
6.43896
6.4515
6.46745
6.48687
6.50979
6.53627
6.56634
6.60002
6.63736
6.67835
6.72303
6.77141
6.82347
6.87924
6.93869
7.00183
7.06863
7.13909
7.21316
7.29084
7.37208
7.45686
7.54513
7.63686
7.73199
7.83048
7.93228
8.03734
8.14559
8.25697
8.37144
8.48891
8.60933
8.73263
8.85874
8.98759
9.1191
9.25321
9.38983
9.5289
9.67033
9.81405
9.95998
10.108
10.2582
10.4102
10.5642
10.72
10.8776
11.0368
11.1976
11.3599
11.5236
11.6886
11.855
12.0225
12.1912
12.3609
12.5316
12.7032
12.8756
13.0488
13.2227
13.3973
13.5724
13.748
13.924
14.1004
14.2771
14.4541
14.6313
14.8086
14.986
15.1634
15.3408
15.5181
15.6953
15.8723
16.0491
16.2256
16.4018
16.5777
16.7531
16.9281
17.1027
17.2767
17.4502
17.6231
17.7954
17.967
18.1379
18.3081
18.4776
18.6463
18.8143
18.9813
19.1476
19.313
19.4775
19.641
19.8037
19.9653
20.1261
20.2858
20.4445
20.6022
20.7589
20.9145
21.0691
21.2226
21.375
21.5263
21.6765
21.8256
21.9736
22.1205
22.2662
22.4108
22.5542
22.6965
22.8376
22.9775
23.1163
23.254
23.3904
23.5257
23.6598
23.7927
23.9245
24.0551
24.1845
24.3127
24.4398
24.5657
24.6904
24.8139
24.9363
25.0575
25.1776
25.2964
25.4142
25.5307
25.6461
25.7604
25.8735
25.9855
26.0963
26.2061
26.3146
26.4221
26.5284
26.6337
26.7378
26.8408
26.9427
27.0435
27.1433
27.2419
27.3395
27.436
27.5314
27.6258
27.7191
27.8114
27.9026
27.9928
28.082
28.1701
28.2572
28.3433
28.4284
28.5124
28.5955
28.6776
28.7587
28.8388
28.9179
28.9961
29.0733
29.1495
29.2248
29.2991
29.3725
29.445
29.5165
29.587
29.6567
29.7254
29.7933
29.8602
29.9262
29.9913
30.0555
30.1189
30.1813
30.2429
30.3036
30.3634
30.4223
30.4804
30.5376
30.594
30.6495
30.7042
30.758
30.811
30.8631
30.9145
30.965
31.0146
31.0635
31.1115
31.1587
31.2051
31.2507
31.2955
31.3395
31.3827
31.4251
31.4667
31.5075
31.5475
31.5868
31.6252
31.6629
31.6998
31.7359
31.7713
31.8059
31.8397
31.8727
31.905
31.9366
31.9673
31.9974
32.0266
32.0551
32.0829
32.1099
32.1361
32.1617
32.1864
32.2104
32.2337
32.2563
32.2781
32.2991
32.3195
32.339
32.3579
32.376
32.3934
32.4101
32.426
32.4412
32.4556
32.4694
32.4824
32.4947
32.5062
32.5171
32.5272
32.5365
32.5452
32.5531
32.5604
32.5668
32.5726
32.5777
32.582
32.5856
32.5885
32.5906
32.5921
32.5928
7.40536
7.40224
7.39598
7.38666
7.37431
7.35905
7.34097
7.3202
7.29688
7.27116
7.24322
7.21324
7.1814
7.14792
7.113
7.07685
7.0397
7.00174
6.96321
6.92432
6.88528
6.84631
6.8076
6.76935
6.73178
6.69505
6.65936
6.62489
6.5918
6.56025
6.53041
6.50242
6.47642
6.45254
6.43092
6.41169
6.39494
6.3808
6.36936
6.36073
6.355
6.35226
6.35258
6.35605
6.36274
6.37271
6.38603
6.40276
6.42294
6.44663
6.47386
6.50468
6.53911
6.57718
6.6189
6.66431
6.71339
6.76617
6.82263
6.88278
6.94661
7.0141
7.08523
7.15998
7.23833
7.32024
7.40568
7.4946
7.58698
7.68275
7.78188
7.88432
7.99
8.09887
8.21088
8.32596
8.44404
8.56506
8.68896
8.81566
8.94509
9.07718
9.21186
9.34905
9.48867
9.63066
9.77492
9.92138
10.07
10.2206
10.3732
10.5277
10.684
10.842
11.0017
11.163
11.3257
11.4899
11.6554
11.8222
11.9902
12.1593
12.3294
12.5005
12.6725
12.8453
13.0189
13.1931
13.368
13.5435
13.7194
13.8958
14.0725
14.2495
14.4268
14.6042
14.7818
14.9595
15.1372
15.3148
15.4924
15.6698
15.847
16.024
16.2007
16.3772
16.5532
16.7288
16.904
17.0787
17.2529
17.4265
17.5996
17.772
17.9437
18.1148
18.2851
18.4547
18.6235
18.7915
18.9587
19.125
19.2905
19.455
19.6186
19.7813
19.943
20.1038
20.2636
20.4223
20.58
20.7367
20.8924
21.0469
21.2004
21.3528
21.5041
21.6543
21.8034
21.9514
22.0982
22.2439
22.3885
22.5318
22.6741
22.8152
22.9551
23.0938
23.2314
23.3678