/*--------------------------------*- C++ -*----------------------------------*\
| =========                 |                                                 |
| \\      /  F ield         | OpenFOAM: The Open Source CFD Toolbox           |
|  \\    /   O peration     | Version:  2212                                  |
|   \\  /    A nd           | Website:  www.openfoam.com                      |
|    \\/     M anipulation  |                                                 |
\*---------------------------------------------------------------------------*/
FoamFile
{
    version     2.0;
    format      ascii;
    arch        "LSB;label=32;scalar=64";
    class       surfaceScalarField;
    location    "260";
    object      phi;
}
// * * * * * * * * * * * * * * * * * * * * * * * * * * * * * * * * * * * * * //

dimensions      [1 0 -1 0 0 0 0];

oriented        oriented;

internalField   nonuniform List<scalar> 
408640
(
-1954.26
1950.69
-3904.8
1949.38
-5848.1
1942.15
-7779.69
1930.46
-9695.05
1914.22
-11590
1893.77
-13460.3
1869.22
-15302.5
1840.97
-17113.1
1809.41
-18889.3
1775.03
-20628.8
1738.28
-22329.6
1699.6
-23990.1
1659.36
-25609.3
1617.95
-27186.2
1575.71
-28720.4
1533.01
-30211.8
1490.18
-31660.5
1447.53
-33067
1405.35
-34432
1363.87
-35756.4
1323.28
-37041.2
1283.72
-38287.6
1245.28
-39496.7
1208.01
-40669.6
1171.91
-41807.6
1136.97
-42911.8
1103.15
-43983.2
1070.38
-45022.8
1038.61
-46031.5
1007.77
-47010.3
977.77
-47959.7
948.541
-48880.7
920.008
-49773.7
892.102
-50639.4
864.759
-51478.2
837.922
-52290.6
811.544
-53077.1
785.581
-53838
759.998
-54573.6
734.765
-55284.3
709.859
-55970.4
685.262
-56632.2
660.96
-57269.9
636.943
-57883.9
613.206
-58474.4
589.743
-59041.8
566.553
-59586.2
543.636
-60107.9
520.99
-60607.2
498.617
-61084.5
476.518
-61539.9
454.694
-61973.7
433.148
-62386.3
411.881
-62777.9
390.895
-63148.7
370.193
-63499.1
349.775
-63829.4
329.645
-64139.8
309.805
-64430.7
290.255
-64702.3
270.999
-64954.9
252.038
-65188.8
233.373
-65404.4
215.006
-65601.9
196.939
-65781.6
179.174
-65943.8
161.71
-66088.8
144.551
-66217
127.696
-66328.6
111.146
-66424
94.9028
-66503.4
78.9662
-66567.2
63.3368
-66615.6
48.0149
-66649
33.0007
-66667.7
18.2939
-66671.9
3.89452
-66662.1
-10.1979
-66638.5
-23.984
-66601.3
-37.4643
-66551
-50.6399
-66487.8
-63.5116
-66412
-76.0808
-66323.9
-88.3487
-66223.9
-100.317
-66112.2
-111.987
-65989
-123.361
-65854.8
-134.441
-65709.8
-145.228
-65554.3
-155.726
-65388.5
-165.936
-65212.8
-175.861
-65027.5
-185.504
-64832.8
-194.868
-64629
-203.954
-64416.3
-212.767
-64195.1
-221.309
-63965.6
-229.584
-63728.1
-237.594
-63482.9
-245.344
-63230.1
-252.836
-62970.1
-260.075
-62703.1
-267.064
-62429.3
-273.806
-62149
-280.305
-61862.4
-286.565
-61569.8
-292.59
-61271.4
-298.384
-60967.5
-303.95
-60658.1
-309.293
-60343.7
-314.417
-60024.3
-319.325
-59700.2
-324.022
-59371.6
-328.512
-59038.7
-332.799
-58701.7
-336.886
-58360.8
-340.779
-58016.2
-344.48
-57668.1
-347.995
-57316.6
-351.327
-56962
-354.48
-56604.4
-357.458
-56244
-360.266
-55880.9
-362.907
-55515.3
-365.385
-55147.4
-367.705
-54777.3
-369.87
-54405.2
-371.883
-54031.3
-373.75
-53655.6
-375.474
-53278.3
-377.057
-52899.5
-378.506
-52519.5
-379.822
-52138.2
-381.009
-51755.9
-382.072
-51372.6
-383.014
-50988.5
-383.838
-50603.7
-384.548
-50218.2
-385.146
-49832.3
-385.638
-49446
-386.025
-49059.3
-386.311
-48672.5
-386.5
-48285.6
-386.593
-47898.7
-386.596
-47511.9
-386.51
-47125.2
-386.338
-46738.8
-386.084
-46352.7
-385.75
-45967
-385.34
-45581.8
-384.855
-45197.2
-384.299
-44813.1
-383.674
-44429.8
-382.983
-44047.2
-382.228
-43665.4
-381.412
-43284.5
-380.537
-42904.5
-379.606
-42525.5
-378.621
-42147.6
-377.584
-41770.7
-376.497
-41394.9
-375.363
-41020.4
-374.184
-40647
-372.961
-40274.9
-371.698
-39904.1
-370.394
-39534.7
-369.054
-39166.6
-367.677
-38800
-366.267
-38434.7
-364.825
-38071
-363.353
-37708.7
-361.852
-37348
-360.324
-36988.8
-358.771
-36631.2
-357.193
-36275.2
-355.593
-35920.9
-353.973
-35568.1
-352.332
-35217.1
-350.674
-34867.7
-348.998
-34520
-347.307
-34174
-345.601
-33829.7
-343.883
-33487.1
-342.152
-33146.3
-340.411
-32807.3
-338.659
-32470
-336.899
-32134.5
-335.132
-31800.7
-333.358
-31468.7
-331.578
-31138.6
-329.793
-30810.2
-328.004
-30483.6
-326.213
-30158.8
-324.419
-29835.8
-322.624
-29514.6
-320.829
-29195.2
-319.034
-28877.5
-317.239
-28561.7
-315.447
-28247.7
-313.657
-27935.5
-311.87
-27625
-310.086
-27316.4
-308.307
-27009.5
-306.533
-26704.4
-304.764
-26401
-303.002
-26099.4
-301.245
-25799.6
-299.496
-25501.5
-297.755
-25205.1
-296.021
-24910.5
-294.296
-24617.6
-292.58
-24326.4
-290.873
-24036.9
-289.176
-23749.1
-287.489
-23463
-285.813
-23178.5
-284.147
-22895.7
-282.493
-22614.5
-280.85
-22335
-279.218
-22057.1
-277.599
-21780.8
-275.993
-21506.2
-274.399
-21233.1
-272.818
-20961.5
-271.25
-20691.6
-269.695
-20423.1
-268.155
-20156.2
-266.628
-19890.9
-265.115
-19627
-263.616
-19364.6
-262.132
-19103.7
-260.662
-18844.2
-259.207
-18586.2
-257.767
-18329.6
-256.342
-18074.5
-254.933
-17820.7
-253.538
-17568.3
-252.16
-17317.3
-250.796
-17067.6
-249.449
-16819.3
-248.117
-16572.3
-246.802
-16326.6
-245.502
-16082.2
-244.218
-15839
-242.951
-15597.1
-241.7
-15356.5
-240.465
-15117
-239.246
-14878.8
-238.044
-14641.8
-236.859
-14405.9
-235.69
-14171.2
-234.537
-13937.6
-233.402
-13705.2
-232.282
-13473.9
-231.18
-13243.6
-230.095
-13014.4
-229.026
-12786.3
-227.974
-12559.2
-226.939
-12333.2
-225.921
-12108.1
-224.919
-11884
-223.935
-11661
-222.967
-11438.8
-222.017
-11217.6
-221.083
-10997.3
-220.166
-10777.9
-219.266
-10559.4
-218.383
-10341.8
-217.517
-10125
-216.668
-9909.1
-215.836
-9693.98
-215.021
-9479.66
-214.223
-9266.12
-213.441
-9053.36
-212.677
-8841.34
-211.929
-8630.05
-211.199
-8419.49
-210.485
-8209.62
-209.788
-8000.43
-209.108
-7791.91
-208.445
-7584.04
-207.798
-7376.8
-207.169
-7170.18
-206.556
-6964.15
-205.96
-6758.71
-205.381
-6553.83
-204.818
-6349.49
-204.272
-6145.69
-203.744
-5942.4
-203.231
-5739.61
-202.736
-5537.31
-202.257
-5335.46
-201.795
-5134.06
-201.349
-4933.09
-200.92
-4732.54
-200.508
-4532.38
-200.112
-4332.61
-199.733
-4133.2
-199.371
-3934.13
-199.025
-3735.4
-198.696
-3536.98
-198.383
-3338.85
-198.087
-3141.01
-197.807
-2943.43
-197.544
-2746.1
-197.297
-2549
-197.067
-2352.12
-196.854
-2155.43
-196.657
-1958.92
-196.476
-1762.58
-196.313
-1566.39
-196.166
-1370.32
-196.037
-1174.37
-195.925
-978.508
-195.831
-782.726
-195.755
-587.002
-195.697
-391.318
-195.657
-195.656
-195.635
-195.629
-1940.23
3889.74
-3877.71
3885.7
-5808.35
3871.65
-7727.82
3848.79
-9632.05
3817.31
-11517
3777.59
-13378.9
3729.97
-15214.2
3675.08
-17019.7
3613.69
-18792.5
3546.68
-20530.4
3474.9
-22231.1
3399.14
-23893.1
3320.15
-25515
3238.62
-27095.8
3155.25
-28634.7
3070.72
-30131.4
2985.7
-31585.9
2900.83
-32998.4
2816.67
-34369.4
2733.72
-35699.6
2652.38
-36989.9
2572.94
-38241.3
2495.63
-39455
2420.56
-40631.9
2347.79
-41773.3
2277.31
-42880.2
2209.06
-43953.8
2142.95
-44995
2078.86
-46004.9
2016.66
-46984.3
1956.22
-47934.1
1897.37
-48855
1839.97
-49747.7
1783.88
-50612.8
1728.97
-51450.9
1675.12
-52262.5
1622.23
-53048
1570.2
-53807.8
1518.97
-54542.3
1468.46
-55251.9
1418.62
-55936.9
1369.41
-56597.6
1320.8
-57234.2
1272.78
-57847.1
1225.31
-58436.6
1178.4
-59002.8
1132.04
-59546.2
1086.23
-60066.9
1040.96
-60565.2
996.231
-61041.5
952.055
-61495.9
908.43
-61928.8
865.359
-62340.5
822.847
-62731.2
780.897
-63101.1
739.513
-63450.7
698.699
-63780.2
658.46
-64089.8
618.8
-64379.8
579.722
-64650.7
541.229
-64902.5
503.327
-65135.7
466.018
-65350.6
429.305
-65547.4
393.191
-65726.4
357.679
-65888
322.772
-66032.4
288.473
-66160
254.782
-66271
221.702
-66365.8
189.234
-66444.6
157.38
-66507.8
126.14
-66555.8
95.5155
-66588.7
65.5056
-66606.9
36.1107
-66610.7
7.33028
-66600.4
-20.8363
-66576.3
-48.3902
-66538.8
-75.3329
-66488.1
-101.666
-66424.5
-127.392
-66348.4
-152.512
-66260
-177.031
-66159.6
-200.95
-66047.6
-224.273
-65924.2
-247.004
-65789.7
-269.146
-65644.4
-290.705
-65488.7
-311.684
-65322.7
-332.087
-65146.8
-351.922
-64961.3
-371.191
-64766.4
-389.902
-64562.4
-408.059
-64349.7
-425.669
-64128.4
-442.738
-63898.8
-459.272
-63661.2
-475.279
-63415.8
-490.763
-63163
-505.734
-62902.9
-520.197
-62635.9
-534.16
-62362.1
-547.63
-62081.8
-560.614
-61795.2
-573.121
-61502.7
-585.158
-61204.3
-596.733
-60900.4
-607.853
-60591.1
-618.527
-60276.7
-628.762
-59957.4
-638.567
-59633.4
-647.949
-59304.9
-656.918
-58972.1
-665.48
-58635.3
-673.644
-58294.5
-681.418
-57950.1
-688.81
-57602.1
-695.829
-57250.8
-702.483
-56896.4
-708.78
-56538.9
-714.727
-56178.7
-720.333
-55815.8
-725.606
-55450.5
-730.554
-55082.8
-735.184
-54713
-739.506
-54341.1
-743.525
-53967.4
-747.251
-53592
-750.69
-53214.9
-753.85
-52836.5
-756.74
-52456.7
-759.365
-52075.7
-761.734
-51693.7
-763.853
-51310.7
-765.73
-50926.9
-767.372
-50542.3
-768.785
-50157.2
-769.978
-49771.6
-770.955
-49385.6
-771.724
-48999.3
-772.291
-48612.9
-772.663
-48226.3
-772.847
-47839.7
-772.847
-47453.2
-772.671
-47066.9
-772.324
-46680.9
-771.812
-46295.1
-771.14
-45909.8
-770.315
-45525
-769.343
-45140.7
-768.227
-44757
-766.974
-44374.1
-765.589
-43991.9
-764.077
-43610.5
-762.442
-43229.9
-760.691
-42850.3
-758.826
-42471.7
-756.854
-42094.2
-754.778
-41717.7
-752.603
-41342.3
-750.333
-40968.1
-747.973
-40595.2
-745.527
-40223.5
-742.997
-39853.1
-740.39
-39484.1
-737.707
-39116.4
-734.954
-38750.1
-732.133
-38385.3
-729.248
-38022
-726.303
-37660.1
-723.301
-37299.8
-720.244
-36941
-717.137
-36583.8
-713.982
-36228.3
-710.782
-35874.3
-707.54
-35522
-704.26
-35171.3
-700.943
-34822.3
-697.592
-34475
-694.21
-34129.4
-690.799
-33785.5
-687.362
-33443.4
-683.901
-33103
-680.419
-32764.3
-676.917
-32427.4
-673.397
-32092.3
-669.863
-31759
-666.315
-31427.4
-662.756
-31097.6
-659.187
-30769.6
-655.611
-30443.4
-652.029
-30119
-648.443
-29796.4
-644.854
-29475.6
-641.264
-29156.6
-637.675
-28839.4
-634.087
-28523.9
-630.504
-28210.3
-626.925
-27898.5
-623.352
-27588.4
-619.786
-27280.1
-616.229
-26973.6
-612.682
-26668.9
-609.146
-26365.9
-605.622
-26064.7
-602.111
-25765.2
-598.614
-25467.5
-595.133
-25171.5
-591.667
-24877.3
-588.218
-24584.8
-584.787
-24293.9
-581.375
-24004.8
-577.983
-23717.4
-574.61
-23431.6
-571.259
-23147.5
-567.929
-22865.1
-564.622
-22584.3
-561.337
-22305.1
-558.076
-22027.6
-554.84
-21751.7
-551.628
-21477.3
-548.442
-21204.6
-545.281
-20933.4
-542.147
-20663.8
-539.04
-20395.7
-535.959
-20129.2
-532.907
-19864.1
-529.883
-19600.6
-526.887
-19338.6
-523.92
-19078
-520.982
-18818.9
-518.074
-18561.2
-515.196
-18305
-512.347
-18050.1
-509.53
-17796.7
-506.743
-17544.7
-503.986
-17294
-501.262
-17044.6
-498.568
-16796.6
-495.906
-16549.9
-493.276
-16304.6
-490.678
-16060.5
-488.112
-15817.6
-485.579
-15576.1
-483.078
-15335.7
-480.609
-15096.6
-478.174
-14858.7
-475.771
-14622
-473.401
-14386.5
-471.065
-14152.1
-468.761
-13918.8
-466.491
-13686.7
-464.254
-13455.6
-462.051
-13225.7
-459.881
-12996.8
-457.745
-12769
-455.642
-12542.2
-453.573
-12316.5
-451.538
-12091.7
-449.537
-11868
-447.569
-11645.2
-445.635
-11423.3
-443.735
-11202.4
-441.868
-10982.4
-440.036
-10763.3
-438.237
-10545.1
-436.472
-10327.8
-434.742
-10111.3
-433.044
-9895.67
-431.381
-9680.84
-429.752
-9466.81
-428.156
-9253.56
-426.594
-9041.08
-425.066
-8829.35
-423.572
-8618.35
-422.112
-8408.07
-420.685
-8198.48
-419.292
-7989.58
-417.933
-7781.34
-416.607
-7573.75
-415.315
-7366.79
-414.057
-7160.45
-412.832
-6954.7
-411.641
-6749.53
-410.483
-6544.93
-409.359
-6340.87
-408.268
-6137.35
-407.211
-5934.34
-406.187
-5731.82
-405.197
-5529.79
-404.24
-5328.22
-403.316
-5127.09
-402.425
-4926.4
-401.568
-4726.11
-400.744
-4526.23
-399.953
-4326.73
-399.196
-4127.58
-398.471
-3928.79
-397.78
-3730.32
-397.122
-3532.17
-396.497
-3334.32
-395.904
-3136.75
-395.345
-2939.44
-394.819
-2742.37
-394.326
-2545.54
-393.867
-2348.92
-393.44
-2152.5
-393.046
-1956.26
-392.686
-1760.19
-392.359
-1564.26
-392.066
-1368.46
-391.808
-1172.77
-391.584
-977.182
-391.395
-781.666
-391.243
-586.209
-391.127
-390.791
-391.048
-195.395
-391.005
-390.997
-1923.42
5811.99
-3844.17
5805.29
-5758.55
5784.88
-7662.64
5751.72
-9552.69
5706.2
-11425
5648.74
-13276.1
5579.85
-15102.6
5500.36
-16901.4
5411.32
-18669.9
5313.92
-20405.5
5209.32
-22106.2
5098.63
-23770.2
4982.88
-25395.9
4863.04
-26982
4740.11
-28527.6
4615.08
-30032
4488.92
-31494.9
4362.57
-32916.4
4236.91
-34296.5
4112.67
-35635.7
3990.49
-36934.8
3870.89
-38194.5
3754.22
-39415.8
3640.72
-40599.6
3530.53
-41747
3423.69
-42859.1
3320.16
-43937
3219.84
-44981.8
3122.61
-45994.4
3028.29
-46975.8
2936.68
-47927
2847.57
-48848.7
2760.75
-49741.8
2676
-50606.8
2593.12
-51444.5
2511.93
-52255.5
2432.27
-53040.1
2353.98
-53799
2276.95
-54532.4
2201.05
-55240.9
2126.21
-55924.6
2052.34
-56584
1979.4
-57219.4
1907.35
-57831.1
1836.16
-58419.3
1765.81
-58984.3
1696.29
-59526.4
1627.59
-60045.9
1559.71
-60543
1492.65
-61018.1
1426.42
-61471.4
1361.01
-61903.2
1296.44
-62313.7
1232.7
-62703.3
1169.8
-63072.2
1107.76
-63420.7
1046.57
-63749.1
986.241
-64057.7
926.78
-64346.8
868.192
-64616.6
810.483
-64867.5
753.658
-65099.8
697.723
-65313.7
642.682
-65509.6
588.54
-65687.8
535.301
-65848.5
482.969
-65992
431.547
-66118.8
381.039
-66229
331.447
-66323
282.774
-66401.1
235.02
-66463.6
188.188
-66510.7
142.278
-66542.9
97.2904
-66560.4
53.2253
-66563.5
10.082
-66552.6
-32.1407
-66527.9
-73.4444
-66489.7
-113.831
-66438.4
-153.304
-66374.2
-191.866
-66297.5
-229.52
-66208.6
-266.271
-66107.7
-302.123
-65995.1
-337.081
-65871.2
-371.151
-65736.2
-404.338
-65590.5
-436.65
-65434.3
-468.092
-65267.9
-498.672
-65091.6
-528.398
-64905.7
-557.276
-64710.4
-585.317
-64506.1
-612.528
-64292.9
-638.918
-64071.3
-664.497
-63841.4
-689.274
-63603.5
-713.258
-63357.9
-736.462
-63104.8
-758.893
-62844.5
-780.564
-62577.2
-801.485
-62303.2
-821.667
-62022.7
-841.122
-61735.9
-859.86
-61443.2
-877.893
-61144.7
-895.233
-60840.6
-911.892
-60531.2
-927.881
-60216.7
-943.213
-59897.3
-957.9
-59573.3
-971.953
-59244.7
-985.385
-58911.9
-998.209
-58575
-1010.44
-58234.2
-1022.08
-57889.8
-1033.15
-57541.8
-1043.66
-57190.5
-1053.62
-56836.1
-1063.05
-56478.7
-1071.95
-56118.6
-1080.35
-55755.8
-1088.24
-55390.5
-1095.64
-55022.9
-1102.57
-54653.2
-1109.04
-54281.4
-1115.06
-53907.8
-1120.63
-53532.5
-1125.77
-53155.6
-1130.5
-52777.3
-1134.82
-52397.7
-1138.75
-52016.9
-1142.29
-51635
-1145.45
-51252.2
-1148.26
-50868.6
-1150.71
-50484.3
-1152.82
-50099.4
-1154.6
-49714
-1156.05
-49328.2
-1157.19
-48942.2
-1158.04
-48556
-1158.58
-48169.6
-1158.85
-47783.3
-1158.84
-47397.1
-1158.57
-47011
-1158.04
-46625.3
-1157.26
-46239.8
-1156.25
-45854.8
-1155
-45470.2
-1153.54
-45086.2
-1151.86
-44702.9
-1149.97
-44320.2
-1147.89
-43938.3
-1145.61
-43557.3
-1143.16
-43177
-1140.52
-42797.8
-1137.72
-42419.5
-1134.76
-42042.3
-1131.64
-41666.1
-1128.37
-41291.1
-1124.96
-40917.3
-1121.42
-40544.6
-1117.75
-40173.3
-1113.95
-39803.3
-1110.04
-39434.6
-1106.01
-39067.3
-1101.88
-38701.4
-1097.64
-38336.9
-1093.31
-37973.9
-1088.89
-37612.4
-1084.39
-37252.5
-1079.8
-36894.1
-1075.14
-36537.2
-1070.4
-36182
-1065.6
-35828.4
-1060.74
-35476.5
-1055.82
-35126.2
-1050.84
-34777.6
-1045.81
-34430.6
-1040.74
-34085.4
-1035.62
-33741.9
-1030.47
-33400.1
-1025.27
-33060.1
-1020.05
-32721.8
-1014.8
-32385.3
-1009.52
-32050.6
-1004.22
-31717.6
-998.895
-31386.4
-993.557
-31057
-988.204
-30729.4
-982.841
-30403.6
-977.468
-30079.6
-972.089
-29757.3
-966.707
-29436.9
-961.323
-29118.3
-955.94
-28801.4
-950.56
-28486.4
-945.185
-28173.1
-939.818
-27861.6
-934.46
-27551.9
-929.113
-27244
-923.779
-26937.9
-918.46
-26633.5
-913.157
-26330.9
-907.872
-26030.1
-902.608
-25731
-897.364
-25433.7
-892.143
-25138
-886.947
-24844.1
-881.775
-24552
-876.631
-24261.5
-871.515
-23972.7
-866.427
-23685.7
-861.371
-23400.3
-856.345
-23116.5
-851.353
-22834.5
-846.393
-22554
-841.469
-22275.2
-836.58
-21998
-831.727
-21722.5
-826.911
-21448.5
-822.134
-21176.1
-817.395
-20905.3
-812.696
-20636
-808.037
-20368.3
-803.418
-20102.1
-798.842
-19837.4
-794.307
-19574.2
-789.816
-19312.5
-785.367
-19052.2
-780.963
-18793.5
-776.603
-18536.1
-772.287
-18280.2
-768.017
-18025.7
-763.792
-17772.6
-759.614
-17520.9
-755.482
-17270.6
-751.396
-17021.5
-747.358
-16773.9
-743.368
-16527.5
-739.425
-16282.5
-735.529
-16038.7
-731.683
-15796.2
-727.884
-15554.9
-724.135
-15314.9
-720.434
-15076.1
-716.783
-14838.5
-713.181
-14602.1
-709.628
-14366.9
-706.125
-14132.8
-702.672
-13899.9
-699.269
-13668
-695.915
-13437.3
-692.612
-13207.7
-689.359
-12979.1
-686.157
-12751.6
-683.005
-12525.2
-679.903
-12299.7
-676.852
-12075.2
-673.851
-11851.8
-670.901
-11629.3
-668.002
-11407.7
-665.153
-11187.1
-662.356
-10967.4
-659.608
-10748.7
-656.912
-10530.7
-654.266
-10313.7
-651.671
-10097.5
-649.127
-9882.16
-646.634
-9667.62
-644.191
-9453.88
-641.799
-9240.92
-639.458
-9028.73
-637.167
-8817.28
-634.927
-8606.57
-632.738
-8396.57
-630.599
-8187.27
-628.511
-7978.66
-626.473
-7770.7
-624.486
-7563.39
-622.549
-7356.72
-620.663
-7150.65
-618.827
-6945.19
-617.041
-6740.3
-615.306
-6535.98
-613.621
-6332.2
-611.985
-6128.95
-610.401
-5926.22
-608.866
-5723.98
-607.381
-5522.22
-605.946
-5320.92
-604.561
-5120.07
-603.226
-4919.65
-601.941
-4719.64
-600.706
-4520.03
-599.521
-4320.8
-598.385
-4121.93
-597.299
-3923.41
-596.263
-3725.22
-595.276
-3527.34
-594.339
-3329.75
-593.451
-3132.45
-592.613
-2935.41
-591.825
-2738.62
-591.086
-2542.05
-590.396
-2345.71
-589.756
-2149.55
-589.166
-1953.58
-588.626
-1757.78
-588.136
-1562.12
-587.697
-1366.59
-587.309
-1171.17
-586.974
-975.845
-586.691
-780.597
-586.463
-585.407
-586.29
-390.257
-586.172
-195.126
-586.108
-586.096
-1901.34
7712.14
-3800.23
7703.01
-5693.37
7676.83
-7577.33
7634.5
-9448.82
7576.49
-11304.5
7503.26
-13141.3
7415.42
-14956.2
7313.96
-16746.2
7200.09
-18508.7
7075.22
-20241.4
6940.73
-21942
6797.95
-23608.5
6648.11
-25239.2
6492.43
-26832.4
6332.13
-28387.1
6168.46
-29902.1
6002.68
-31376.8
5836.02
-32810.7
5669.62
-34203.8
5504.51
-35556
5341.58
-36867.8
5181.55
-38139.8
5025
-39372.5
4872.33
-40566.8
4723.79
-41723.8
4579.54
-42844.3
4439.61
-43929.4
4303.94
-44980.2
4172.42
-45997.8
4044.86
-46983.1
3921.05
-47937.3
3800.74
-48861.1
3683.64
-49755.5
3569.48
-50621.3
3458
-51459.2
3348.95
-52269.9
3242.08
-53054
3137.19
-53812
3034.08
-54544.4
2932.6
-55251.7
2832.6
-55934.1
2733.97
-56592.2
2636.62
-57226.1
2540.5
-57836.3
2445.55
-58423
2351.75
-58986.6
2259.06
-59527.2
2167.48
-60045.2
2077
-60540.9
1987.62
-61014.6
1899.34
-61466.5
1812.17
-61896.8
1726.11
-62306
1641.16
-62694.2
1557.34
-63061.7
1474.65
-63408.9
1393.11
-63736
1312.71
-64043.3
1233.46
-64331.1
1155.38
-64599.7
1078.47
-64849.3
1002.74
-65080.4
928.201
-65293.1
854.85
-65487.8
782.697
-65664.8
711.748
-65824.3
642.009
-65966.7
573.483
-66092.3
506.175
-66201.5
440.088
-66294.4
375.227
-66371.4
311.592
-66432.8
249.185
-66478.9
188.008
-66510.1
128.062
-66526.6
69.3451
-66528.8
11.8576
-66516.9
-44.4024
-66491.2
-99.437
-66452.1
-153.249
-66399.9
-205.842
-66334.9
-257.22
-66257.3
-307.389
-66167.5
-356.352
-66065.8
-404.117
-65952.4
-450.691
-65827.7
-496.08
-65692
-540.292
-65545.5
-583.337
-65388.6
-625.222
-65221.5
-665.958
-65044.5
-705.554
-64857.9
-744.022
-64662
-781.372
-64457.1
-817.616
-64243.3
-852.766
-64021.1
-886.834
-63790.6
-919.833
-63552.2
-951.777
-63306.1
-982.678
-63052.5
-1012.55
-62791.7
-1041.41
-62523.9
-1069.27
-62249.5
-1096.14
-61968.6
-1122.05
-61681.5
-1147
-61388.3
-1171.01
-61089.5
-1194.09
-60785
-1216.27
-60475.3
-1237.56
-60160.5
-1257.97
-59840.9
-1277.52
-59516.5
-1296.22
-59187.7
-1314.1
-58854.7
-1331.17
-58517.6
-1347.44
-58176.6
-1362.93
-57832
-1377.67
-57483.8
-1391.65
-57132.4
-1404.91
-56777.9
-1417.45
-56420.4
-1429.29
-56060.1
-1440.45
-55697.2
-1450.95
-55331.9
-1460.8
-54964.2
-1470.02
-54594.5
-1478.61
-54222.7
-1486.61
-53849.1
-1494.02
-53473.8
-1500.85
-53096.9
-1507.13
-52718.6
-1512.87
-52339.1
-1518.08
-51958.3
-1522.78
-51576.5
-1526.98
-51193.8
-1530.7
-50810.3
-1533.95
-50426.1
-1536.74
-50041.3
-1539.09
-49656
-1541.02
-49270.4
-1542.52
-48884.5
-1543.63
-48498.5
-1544.34
-48112.3
-1544.68
-47726.2
-1544.66
-47340.1
-1544.28
-46954.3
-1543.56
-46568.7
-1542.51
-46183.5
-1541.14
-45798.7
-1539.47
-45414.3
-1537.5
-45030.6
-1535.25
-44647.5
-1532.72
-44265.1
-1529.93
-43883.4
-1526.89
-43502.6
-1523.6
-43122.7
-1520.08
-42743.7
-1516.34
-42365.7
-1512.38
-41988.8
-1508.21
-41612.9
-1503.85
-41238.2
-1499.29
-40864.7
-1494.56
-40492.4
-1489.66
-40121.4
-1484.59
-39751.6
-1479.36
-39383.3
-1473.98
-39016.3
-1468.47
-38650.7
-1462.82
-38286.6
-1457.04
-37923.9
-1451.14
-37562.8
-1445.13
-37203.2
-1439.01
-36845.1
-1432.79
-36488.7
-1426.47
-36133.8
-1420.07
-35780.6
-1413.58
-35429
-1407.01
-35079.1
-1400.37
-34730.8
-1393.67
-34384.2
-1386.9
-34039.4
-1380.08
-33696.3
-1373.2
-33354.9
-1366.28
-33015.2
-1359.31
-32677.3
-1352.3
-32341.2
-1345.26
-32006.8
-1338.19
-31674.2
-1331.1
-31343.4
-1323.98
-31014.4
-1316.84
-30687.1
-1309.69
-30361.7
-1302.53
-30038
-1295.36
-29716.2
-1288.18
-29396.1
-1281
-29077.9
-1273.82
-28761.4
-1266.65
-28446.8
-1259.49
-28133.9
-1252.33
-27822.8
-1245.19
-27513.5
-1238.06
-27206
-1230.95
-26900.2
-1223.86
-26596.2
-1216.79
-26294
-1209.74
-25993.5
-1202.72
-25694.8
-1195.74
-25397.9
-1188.78
-25102.6
-1181.85
-24809.1
-1174.96
-24517.3
-1168.1
-24227.2
-1161.28
-23938.8
-1154.5
-23652.1
-1147.76
-23367.1
-1141.06
-23083.7
-1134.4
-22802
-1127.79
-22522
-1121.23
-22243.5
-1114.71
-21966.7
-1108.25
-21691.5
-1101.83
-21417.9
-1095.46
-21145.9
-1089.14
-20875.4
-1082.88
-20606.5
-1076.67
-20339.1
-1070.52
-20073.3
-1064.42
-19809
-1058.37
-19546.1
-1052.39
-19284.8
-1046.46
-19024.9
-1040.59
-18766.5
-1034.78
-18509.5
-1029.03
-18254
-1023.33
-17999.8
-1017.7
-17747.1
-1012.14
-17495.7
-1006.63
-17245.7
-1001.18
-16997
-995.802
-16749.7
-990.484
-16503.7
-985.229
-16259
-980.038
-16015.5
-974.912
-15773.4
-969.85
-15532.5
-964.853
-15292.8
-959.922
-15054.3
-955.056
-14817.1
-950.256
-14581
-945.521
-14346.1
-940.853
-14112.4
-936.251
-13879.7
-931.716
-13648.2
-927.247
-13417.9
-922.846
-13188.6
-918.511
-12960.3
-914.243
-12733.1
-910.043
-12507
-905.909
-12281.8
-901.843
-12057.7
-897.845
-11834.6
-893.914
-11612.4
-890.05
-11391.2
-886.255
-11170.9
-882.526
-10951.5
-878.865
-10733
-875.272
-10515.4
-871.747
-10298.7
-868.289
-10082.8
-864.899
-9867.78
-861.576
-9653.55
-858.321
-9440.12
-855.134
-9227.47
-852.014
-9015.58
-848.962
-8804.45
-845.977
-8594.04
-843.06
-8384.34
-840.21
-8175.35
-837.427
-7967.03
-834.712
-7759.38
-832.064
-7552.37
-829.483
-7345.99
-826.969
-7140.23
-824.523
-6935.06
-822.143
-6730.47
-819.831
-6526.45
-817.585
-6322.96
-815.407
-6120.01
-813.295
-5917.57
-811.249
-5715.63
-809.271
-5514.16
-807.359
-5313.16
-805.514
-5112.6
-803.735
-4912.47
-802.023
-4712.76
-800.377
-4513.44
-798.797
-4314.49
-797.284
-4115.91
-795.837
-3917.68
-794.456
-3719.78
-793.141
-3522.19
-791.892
-3324.89
-790.71
-3127.88
-789.593
-2931.12
-788.542
-2734.62
-787.558
-2538.34
-786.639
-2342.28
-785.786
-2146.42
-785
-1950.73
-784.28
-1755.21
-783.627
-1559.84
-783.042
-1364.59
-782.525
-1169.46
-782.078
-974.421
-781.702
-779.459
-781.398
-584.555
-781.167
-389.69
-781.01
-194.845
-780.926
-780.915
-1878.94
9589.87
-3755.56
9578.41
-5627.02
9547.07
-7490.39
9496.64
-9342.78
9427.64
-11181.3
9340.53
-13003.1
9236
-14805.6
9115.1
-16585.9
8979.16
-18341.7
8829.71
-20070.6
8668.26
-21770.2
8496.28
-23438.6
8315.16
-25073.7
8126.26
-26673.9
7930.99
-28237.6
7730.82
-29763.4
7527.25
-31250.4
7321.74
-32697.8
7115.71
-34105
6910.45
-35471.7
6707.11
-36798
6506.68
-38084.1
6309.93
-39330.4
6117.49
-40537.5
5929.78
-41706.2
5747.11
-42837.3
5569.63
-43931.8
5397.38
-44990.7
5230.3
-46015.1
5068.26
-47006.1
4911.04
-47964.7
4758.37
-48892
4609.94
-49788.9
4465.44
-50656.3
4324.53
-51495.2
4186.9
-52306.2
4052.23
-53090.1
3920.24
-53847.6
3790.66
-54579.1
3663.28
-55285.3
3537.88
-55966.4
3414.31
-56623
3292.43
-57255.5
3172.14
-57864.1
3053.37
-58449.2
2936.07
-59011.1
2820.19
-59550.1
2705.72
-60066.5
2592.64
-60560.5
2480.94
-61032.5
2370.63
-61482.8
2261.7
-61911.5
2154.16
-62319.1
2048.03
-62705.7
1943.29
-63071.7
1839.97
-63417.3
1738.08
-63742.8
1637.63
-64048.6
1538.61
-64334.9
1441.06
-64602
1344.97
-64850.1
1250.35
-65079.7
1157.21
-65291
1065.56
-65484.2
975.416
-65659.8
886.773
-65817.9
799.641
-65959
714.027
-66083.2
629.935
-66190.9
547.371
-66282.5
466.337
-66358.2
386.837
-66418.3
308.874
-66463.2
232.448
-66493.1
157.559
-66508.3
84.209
-66509.2
12.3953
-66496.1
-57.8835
-66469.3
-126.63
-66429
-193.848
-66375.6
-259.543
-66309.4
-323.718
-66230.7
-386.38
-66139.8
-447.536
-66037
-507.194
-65922.6
-565.362
-65796.8
-622.049
-65660.1
-677.266
-65512.6
-731.022
-65354.7
-783.329
-65186.7
-834.199
-65008.7
-883.644
-64821.3
-931.679
-64624.5
-978.316
-64418.6
-1023.57
-64204.1
-1067.46
-63981
-1109.99
-63749.8
-1151.19
-63510.6
-1191.07
-63263.7
-1229.65
-63009.3
-1266.94
-62747.8
-1302.96
-62479.4
-1337.74
-62204.3
-1371.28
-61922.8
-1403.61
-61635
-1434.75
-61341.3
-1464.72
-61041.8
-1493.53
-60736.9
-1521.2
-60426.6
-1547.76
-60111.3
-1573.23
-59791.2
-1597.62
-59466.4
-1620.96
-59137.1
-1643.26
-58803.6
-1664.55
-58466.1
-1684.85
-58124.8
-1704.17
-57779.8
-1722.54
-57431.3
-1739.98
-57079.6
-1756.51
-56724.8
-1772.14
-56367
-1786.91
-56006.5
-1800.82
-55643.3
-1813.91
-55277.8
-1826.18
-54909.9
-1837.66
-54540
-1848.37
-54168
-1858.33
-53794.3
-1867.55
-53418.9
-1876.06
-53041.9
-1883.88
-52663.5
-1891.02
-52283.8
-1897.5
-51903
-1903.34
-51521.2
-1908.56
-51138.4
-1913.18
-50754.9
-1917.21
-50370.7
-1920.68
-49985.9
-1923.59
-49600.6
-1925.96
-49215.1
-1927.82
-48829.2
-1929.18
-48443.2
-1930.04
-48057.1
-1930.44
-47671.1
-1930.39
-47285.1
-1929.89
-46899.4
-1928.97
-46513.9
-1927.63
-46128.8
-1925.91
-45744.2
-1923.79
-45360
-1921.32
-44976.4
-1918.48
-44593.5
-1915.31
-44211.2
-1911.8
-43829.8
-1907.98
-43449.2
-1903.85
-43069.5
-1899.44
-42690.7
-1894.74
-42312.9
-1889.77
-41936.2
-1884.55
-41560.6
-1879.08
-41186.1
-1873.38
-40812.8
-1867.45
-40440.8
-1861.31
-40070
-1854.96
-39700.6
-1848.41
-39332.5
-1841.68
-38965.8
-1834.78
-38600.5
-1827.7
-38236.7
-1820.47
-37874.3
-1813.09
-37513.5
-1805.57
-37154.2
-1797.91
-36796.5
-1790.12
-36440.3
-1782.22
-36085.8
-1774.21
-35732.9
-1766.09
-35381.6
-1757.88
-35032
-1749.57
-34684.1
-1741.19
-34337.9
-1732.72
-33993.3
-1724.19
-33650.6
-1715.59
-33309.5
-1706.93
-32970.2
-1698.22
-32632.7
-1689.46
-32296.9
-1680.66
-31962.9
-1671.82
-31630.6
-1662.94
-31300.2
-1654.04
-30971.5
-1645.12
-30644.6
-1636.18
-30319.6
-1627.22
-29996.3
-1618.26
-29674.8
-1609.28
-29355.1
-1600.31
-29037.2
-1591.34
-28721.1
-1582.37
-28406.8
-1573.42
-28094.3
-1564.47
-27783.6
-1555.54
-27474.7
-1546.63
-27167.5
-1537.74
-26862.1
-1528.88
-26558.5
-1520.05
-26256.7
-1511.24
-25956.6
-1502.47
-25658.2
-1493.73
-25361.6
-1485.04
-25066.8
-1476.38
-24773.6
-1467.76
-24482.2
-1459.19
-24192.5
-1450.67
-23904.5
-1442.2
-23618.1
-1433.77
-23333.5
-1425.4
-23050.5
-1417.08
-22769.2
-1408.82
-22489.5
-1400.62
-22211.4
-1392.48
-21935
-1384.4
-21660.1
-1376.38
-21386.9
-1368.42
-21115.2
-1360.53
-20845.1
-1352.7
-20576.6
-1344.94
-20309.6
-1337.25
-20044.1
-1329.63
-19780.1
-1322.08
-19517.6
-1314.6
-19256.7
-1307.19
-18997.1
-1299.85
-18739.1
-1292.59
-18482.5
-1285.41
-18227.3
-1278.3
-17973.5
-1271.26
-17721.1
-1264.3
-17470
-1257.42
-17220.4
-1250.62
-16972.1
-1243.9
-16725.1
-1237.25
-16479.4
-1230.69
-16235.1
-1224.2
-15992
-1217.8
-15750.2
-1211.47
-15509.6
-1205.23
-15270.3
-1199.07
-15032.1
-1192.99
-14795.2
-1186.99
-14559.5
-1181.08
-14324.9
-1175.24
-14091.5
-1169.49
-13859.2
-1163.83
-13628.1
-1158.25
-13398
-1152.75
-13169
-1147.33
-12941.1
-1142
-12714.3
-1136.75
-12488.5
-1131.59
-12263.7
-1126.51
-12039.9
-1121.51
-11817
-1116.6
-11595.2
-1111.77
-11374.3
-1107.03
-11154.3
-1102.37
-10935.3
-1097.8
-10717.1
-1093.31
-10499.8
-1088.91
-10283.4
-1084.59
-10067.9
-1080.35
-9853.12
-1076.2
-9639.21
-1072.14
-9426.09
-1068.15
-9213.75
-1064.26
-9002.18
-1060.44
-8791.35
-1056.71
-8581.25
-1053.07
-8371.87
-1049.51
-8163.18
-1046.03
-7955.17
-1042.64
-7747.83
-1039.33
-7541.13
-1036.11
-7335.05
-1032.97
-7129.59
-1029.91
-6924.73
-1026.94
-6720.44
-1024.05
-6516.72
-1021.25
-6313.54
-1018.53
-6110.89
-1015.89
-5908.75
-1013.33
-5707.11
-1010.86
-5505.94
-1008.47
-5305.24
-1006.17
-5104.98
-1003.95
-4905.15
-1001.81
-4705.73
-999.75
-4506.7
-997.777
-4308.06
-995.886
-4109.77
-994.079
-3911.84
-992.354
-3714.23
-990.711
-3516.93
-989.151
-3319.93
-987.674
-3123.21
-986.279
-2926.75
-984.966
-2730.54
-983.736
-2534.55
-982.589
-2338.78
-981.523
-2143.21
-980.541
-1947.82
-979.642
-1752.59
-978.826
-1557.51
-978.095
-1362.56
-977.449
-1167.71
-976.891
-972.967
-976.421
-778.296
-976.041
-583.682
-975.753
-389.107
-975.557
-194.552
-975.453
-975.44
-1854.35
11442.9
-3706.6
11429.4
-5554.34
11393.5
-7395.12
11336.1
-9226.46
11257.7
-11045.9
11158.7
-12851
11039.8
-14639.2
10902.1
-16408.4
10746.9
-18155.9
10575.9
-19879.7
10390.6
-21577.3
10192.6
-23246.7
9983.2
-24885.8
9764
-26492.7
9536.51
-28065.6
9302.32
-29602.8
9063.14
-31103.1
8820.64
-32565.1
8576.46
-33988.1
8332.15
-35371.4
8089.11
-36714.5
7848.57
-38017.4
7611.57
-39280
7378.96
-40502.8
7151.39
-41686.2
6929.35
-42830.8
6713.17
-43937.6
6503.05
-45007.4
6299.04
-46041.3
6101.09
-47040.3
5909.04
-48005.5
5722.64
-48938.1
5541.59
-49839.2
5365.53
-50709.7
5194.11
-51550.7
5026.94
-52363
4863.64
-53147.5
4703.85
-53904.9
4547.23
-54635.9
4393.47
-55341.2
4242.3
-56021.2
4093.49
-56676.5
3946.85
-57307.4
3802.23
-57914.3
3659.52
-58497.7
3518.63
-59057.8
3379.51
-59594.9
3242.11
-60109.4
3106.4
-60601.6
2972.38
-61071.7
2840.02
-61520
2709.34
-61946.9
2580.34
-62352.6
2453.01
-62737.3
2327.38
-63101.4
2203.44
-63445.2
2081.22
-63768.9
1960.72
-64072.9
1841.95
-64357.4
1724.93
-64622.7
1609.67
-64869.1
1496.17
-65096.9
1384.46
-65306.4
1274.53
-65497.9
1166.4
-65671.7
1060.07
-65828.1
955.564
-65967.5
852.876
-66090
752.016
-66196.1