/*--------------------------------*- C++ -*----------------------------------*\
| =========                 |                                                 |
| \\      /  F ield         | OpenFOAM: The Open Source CFD Toolbox           |
|  \\    /   O peration     | Version:  2212                                  |
|   \\  /    A nd           | Website:  www.openfoam.com                      |
|    \\/     M anipulation  |                                                 |
\*---------------------------------------------------------------------------*/
FoamFile
{
    version     2.0;
    format      ascii;
    arch        "LSB;label=32;scalar=64";
    class       volScalarField;
    location    "960";
    object      p_rgh_0;
}
// * * * * * * * * * * * * * * * * * * * * * * * * * * * * * * * * * * * * * //

dimensions      [1 -1 -2 0 0 0 0];

internalField   nonuniform List<scalar> 
204800
(
51.4957
51.4946
51.4932
51.4907
51.4873
51.4828
51.477
51.47
51.4617
51.452
51.4412
51.4291
51.4158
51.4015
51.3861
51.3696
51.3521
51.3336
51.3142
51.2937
51.2722
51.2498
51.2265
51.2021
51.1769
51.1507
51.1236
51.0956
51.0667
51.0369
51.0063
50.9747
50.9424
50.9091
50.8751
50.8402
50.8046
50.7681
50.7309
50.6929
50.6541
50.6146
50.5744
50.5335
50.4919
50.4496
50.4066
50.363
50.3188
50.2739
50.2284
50.1824
50.1357
50.0886
50.0408
49.9926
49.9438
49.8946
49.8449
49.7947
49.7441
49.6931
49.6416
49.5898
49.5376
49.4851
49.4322
49.379
49.3255
49.2717
49.2177
49.1634
49.1089
49.0541
48.9992
48.9441
48.8889
48.8335
48.7779
48.7223
48.6666
48.6108
48.555
48.4991
48.4432
48.3873
48.3314
48.2756
48.2198
48.164
48.1084
48.0528
47.9974
47.9421
47.8869
47.8319
47.7771
47.7224
47.668
47.6138
47.5598
47.5061
47.4526
47.3995
47.3466
47.294
47.2418
47.1899
47.1383
47.0871
47.0363
46.9859
46.9358
46.8862
46.837
46.7882
46.7399
46.692
46.6446
46.5977
46.5512
46.5053
46.4598
46.4149
46.3704
46.3266
46.2832
46.2404
46.1982
46.1565
46.1154
46.0748
46.0349
45.9955
45.9567
45.9185
45.881
45.844
45.8076
45.7719
45.7368
45.7023
45.6685
45.6352
45.6027
45.5707
45.5394
45.5087
45.4787
45.4493
45.4206
45.3925
45.3651
45.3383
45.3122
45.2867
45.2619
45.2377
45.2142
45.1913
45.169
45.1474
45.1265
45.1061
45.0864
45.0674
45.049
45.0312
45.014
44.9974
44.9815
44.9662
44.9515
44.9374
44.9239
44.911
44.8986
44.8869
44.8757
44.8652
44.8552
44.8457
44.8368
44.8285
44.8207
44.8135
44.8067
44.8006
44.7949
44.7897
44.7851
44.7809
44.7773
44.7741
44.7714
44.7692
44.7674
44.7661
44.7652
44.7648
44.7648
44.7652
44.766
44.7673
44.7689
44.771
44.7734
44.7762
44.7793
44.7828
44.7867
44.7909
44.7954
44.8002
44.8054
44.8109
44.8166
44.8227
44.829
44.8356
44.8425
44.8496
44.857
44.8646
44.8724
44.8805
44.8887
44.8972
44.9058
44.9147
44.9237
44.9329
44.9423
44.9518
44.9614
44.9712
44.9811
44.9912
45.0013
45.0116
45.0219
45.0323
45.0429
45.0534
45.0641
45.0748
45.0856
45.0964
45.1072
45.1181
45.129
45.1399
45.1508
45.1617
45.1726
45.1835
45.1944
45.2052
45.216
45.2268
45.2375
45.2482
45.2588
45.2693
45.2798
45.2902
45.3005
45.3107
45.3208
45.3309
45.3408
45.3506
45.3603
45.3699
45.3793
45.3886
45.3978
45.4068
45.4157
45.4245
45.4331
45.4415
45.4498
45.4579
45.4658
45.4735
45.4811
45.4885
45.4957
45.5027
45.5096
45.5162
45.5226
45.5288
45.5349
45.5407
45.5463
45.5517
45.5568
45.5618
45.5665
45.571
45.5753
45.5794
45.5832
45.5868
45.5902
45.5933
45.5962
45.5989
45.6013
45.6035
45.6054
45.6071
45.6086
45.6098
45.6108
45.6115
45.612
45.6123
51.4067
51.4052
51.4026
51.3986
51.3936
51.3874
51.3801
51.3719
51.3625
51.3522
51.3408
51.3283
51.3149
51.3004
51.2849
51.2683
51.2508
51.2323
51.2129
51.1924
51.171
51.1486
51.1252
51.101
51.0757
51.0496
51.0226
50.9946
50.9657
50.936
50.9054
50.8739
50.8416
50.8085
50.7745
50.7397
50.7041
50.6677
50.6305
50.5926
50.5539
50.5145
50.4743
50.4335
50.3919
50.3497
50.3068
50.2633
50.2191
50.1744
50.129
50.083
50.0365
49.9894
49.9417
49.8936
49.8449
49.7958
49.7461
49.6961
49.6455
49.5946
49.5433
49.4915
49.4394
49.387
49.3342
49.2811
49.2277
49.174
49.1201
49.0659
49.0115
48.9569
48.902
48.847
48.7919
48.7366
48.6812
48.6257
48.57
48.5144
48.4586
48.4028
48.3471
48.2913
48.2355
48.1797
48.124
48.0684
48.0129
47.9574
47.9021
47.8468
47.7918
47.7369
47.6822
47.6276
47.5733
47.5192
47.4653
47.4117
47.3584
47.3053
47.2525
47.2
47.1479
47.0961
47.0446
46.9935
46.9428
46.8925
46.8425
46.793
46.7439
46.6952
46.6469
46.5991
46.5518
46.505
46.4586
46.4127
46.3674
46.3225
46.2782
46.2344
46.1911
46.1484
46.1062
46.0646
46.0236
45.9831
45.9432
45.9039
45.8652
45.8271
45.7896
45.7527
45.7165
45.6808
45.6458
45.6113
45.5775
45.5444
45.5119
45.48
45.4487
45.4181
45.3882
45.3589
45.3302
45.3022
45.2748
45.2481
45.222
45.1965
45.1718
45.1476
45.1241
45.1013
45.0791
45.0575
45.0366
45.0163
44.9967
44.9776
44.9593
44.9415
44.9244
44.9078
44.8919
44.8767
44.862
44.8479
44.8344
44.8215
44.8092
44.7975
44.7864
44.7759
44.7659
44.7564
44.7476
44.7393
44.7315
44.7243
44.7176
44.7114
44.7057
44.7006
44.6959
44.6918
44.6881
44.685
44.6823
44.6801
44.6783
44.677
44.6761
44.6757
44.6757
44.6761
44.677
44.6782
44.6799
44.6819
44.6843
44.6871
44.6902
44.6937
44.6976
44.7018
44.7063
44.7111
44.7163
44.7218
44.7275
44.7336
44.7399
44.7465
44.7533
44.7604
44.7678
44.7754
44.7832
44.7912
44.7995
44.8079
44.8166
44.8254
44.8344
44.8436
44.8529
44.8624
44.8721
44.8818
44.8917
44.9018
44.9119
44.9221
44.9325
44.9429
44.9534
44.9639
44.9746
44.9853
44.996
45.0068
45.0176
45.0285
45.0393
45.0502
45.0611
45.072
45.0829
45.0938
45.1046
45.1154
45.1262
45.137
45.1477
45.1583
45.1689
45.1794
45.1899
45.2003
45.2106
45.2208
45.2309
45.2409
45.2508
45.2606
45.2703
45.2798
45.2892
45.2985
45.3077
45.3167
45.3256
45.3343
45.3429
45.3513
45.3596
45.3677
45.3756
45.3833
45.3909
45.3983
45.4055
45.4125
45.4193
45.4259
45.4323
45.4385
45.4445
45.4503
45.4559
45.4613
45.4665
45.4714
45.4761
45.4806
45.4849
45.489
45.4928
45.4964
45.4997
45.5029
45.5058
45.5084
45.5108
45.513
45.515
45.5167
45.5181
45.5193
45.5203
45.521
45.5215
45.5218
51.3881
51.3866
51.384
51.38
51.375
51.3688
51.3615
51.3532
51.3439
51.3335
51.322
51.3096
51.2961
51.2816
51.266
51.2495
51.232
51.2134
51.1939
51.1735
51.152
51.1296
51.1063
51.082
51.0568
51.0306
51.0036
50.9756
50.9467
50.917
50.8864
50.8549
50.8226
50.7894
50.7554
50.7206
50.685
50.6486
50.6115
50.5735
50.5349
50.4954
50.4553
50.4145
50.3729
50.3307
50.2878
50.2443
50.2001
50.1553
50.11
50.064
50.0175
49.9704
49.9227
49.8746
49.8259
49.7768
49.7271
49.6771
49.6266
49.5756
49.5243
49.4726
49.4205
49.368
49.3153
49.2622
49.2088
49.1551
49.1012
49.047
48.9926
48.9379
48.8831
48.8281
48.773
48.7177
48.6623
48.6067
48.5511
48.4955
48.4397
48.384
48.3282
48.2724
48.2166
48.1609
48.1052
48.0495
47.994
47.9386
47.8832
47.828
47.773
47.7181
47.6633
47.6088
47.5545
47.5004
47.4465
47.3929
47.3396
47.2865
47.2337
47.1813
47.1291
47.0773
47.0259
46.9748
46.9241
46.8737
46.8238
46.7743
46.7251
46.6765
46.6282
46.5805
46.5331
46.4863
46.4399
46.3941
46.3487
46.3039
46.2595
46.2157
46.1725
46.1298
46.0876
46.046
46.005
45.9645
45.9246
45.8854
45.8467
45.8086
45.7711
45.7342
45.6979
45.6622
45.6272
45.5928
45.559
45.5259
45.4933
45.4615
45.4302
45.3996
45.3697
45.3404
45.3117
45.2837
45.2563
45.2296
45.2035
45.1781
45.1533
45.1292
45.1057
45.0829
45.0607
45.0391
45.0182
44.9979
44.9783
44.9593
44.9409
44.9231
44.906
44.8895
44.8736
44.8583
44.8436
44.8296
44.8161
44.8032
44.7909
44.7792
44.7681
44.7575
44.7476
44.7381
44.7293
44.721
44.7132
44.706
44.6993
44.6931
44.6875
44.6823
44.6777
44.6736
44.6699
44.6667
44.6641
44.6618
44.6601
44.6588
44.6579
44.6575
44.6575
44.6579
44.6588
44.66
44.6617
44.6637
44.6661
44.6689
44.6721
44.6756
44.6794
44.6836
44.6881
44.693
44.6981
44.7036
44.7094
44.7154
44.7217
44.7283
44.7352
44.7423
44.7497
44.7573
44.7651
44.7731
44.7814
44.7898
44.7985
44.8073
44.8163
44.8255
44.8348
44.8443
44.854
44.8637
44.8736
44.8837
44.8938
44.904
44.9144
44.9248
44.9353
44.9458
44.9565
44.9672
44.9779
44.9887
44.9995
45.0104
45.0213
45.0322
45.043
45.0539
45.0648
45.0757
45.0865
45.0974
45.1082
45.1189
45.1296
45.1403
45.1508
45.1614
45.1718
45.1822
45.1925
45.2027
45.2128
45.2228
45.2327
45.2425
45.2522
45.2617
45.2712
45.2805
45.2896
45.2987
45.3075
45.3163
45.3248
45.3333
45.3415
45.3496
45.3575
45.3652
45.3728
45.3802
45.3874
45.3944
45.4012
45.4078
45.4142
45.4204
45.4265
45.4323
45.4379
45.4432
45.4484
45.4533
45.4581
45.4626
45.4668
45.4709
45.4747
45.4783
45.4817
45.4848
45.4877
45.4903
45.4928
45.4949
45.4969
45.4986
45.5
45.5013
45.5022
45.503
45.5035
45.5037
51.3088
51.3072
51.304
51.2995
51.2936
51.2866
51.2786
51.2697
51.2597
51.2488
51.237
51.2242
51.2105
51.1958
51.1801
51.1635
51.1459
51.1273
51.1078
51.0873
51.0658
51.0434
51.0201
50.9958
50.9706
50.9444
50.9174
50.8895
50.8606
50.8309
50.8003
50.7689
50.7366
50.7035
50.6695
50.6348
50.5992
50.5628
50.5257
50.4878
50.4492
50.4098
50.3697
50.3289
50.2875
50.2453
50.2025
50.159
50.1149
50.0702
50.0248
49.9789
49.9324
49.8854
49.8378
49.7897
49.7411
49.6921
49.6425
49.5925
49.5421
49.4912
49.4399
49.3883
49.3362
49.2839
49.2312
49.1781
49.1248
49.0712
49.0173
48.9632
48.9089
48.8543
48.7996
48.7447
48.6896
48.6344
48.579
48.5236
48.468
48.4124
48.3568
48.3011
48.2454
48.1897
48.134
48.0783
48.0227
47.9671
47.9117
47.8563
47.801
47.7459
47.6909
47.6361
47.5814
47.527
47.4727
47.4187
47.3649
47.3114
47.2581
47.2051
47.1524
47.1001
47.048
46.9963
46.9449
46.8938
46.8432
46.7929
46.7431
46.6936
46.6446
46.5959
46.5478
46.5001
46.4528
46.406
46.3598
46.314
46.2687
46.2239
46.1796
46.1359
46.0927
46.05
46.0079
45.9664
45.9254
45.885
45.8452
45.806
45.7673
45.7293
45.6919
45.655
45.6188
45.5832
45.5482
45.5139
45.4801
45.447
45.4146
45.3827
45.3516
45.321
45.2911
45.2618
45.2332
45.2052
45.1779
45.1512
45.1252
45.0998
45.0751
45.051
45.0276
45.0048
44.9826
44.9611
44.9402
44.92
44.9003
44.8814
44.863
44.8453
44.8282
44.8117
44.7959
44.7806
44.766
44.7519
44.7385
44.7256
44.7134
44.7017
44.6906
44.6801
44.6701
44.6607
44.6519
44.6436
44.6358
44.6286
44.6219
44.6158
44.6101
44.605
44.6004
44.5963
44.5927
44.5895
44.5868
44.5846
44.5829
44.5816
44.5807
44.5803
44.5803
44.5808
44.5816
44.5829
44.5845
44.5866
44.589
44.5918
44.5949
44.5984
44.6023
44.6065
44.611
44.6159
44.621
44.6265
44.6323
44.6383
44.6446
44.6512
44.6581
44.6652
44.6725
44.6801
44.688
44.696
44.7042
44.7127
44.7213
44.7302
44.7392
44.7483
44.7577
44.7672
44.7768
44.7865
44.7964
44.8065
44.8166
44.8268
44.8371
44.8475
44.858
44.8686
44.8792
44.8899
44.9007
44.9114
44.9222
44.9331
44.944
44.9548
44.9657
44.9766
44.9875
44.9983
45.0092
45.02
45.0308
45.0415
45.0522
45.0628
45.0734
45.0839
45.0944
45.1047
45.115
45.1252
45.1353
45.1453
45.1552
45.165
45.1746
45.1842
45.1936
45.2029
45.2121
45.2211
45.2299
45.2387
45.2472
45.2556
45.2639
45.2719
45.2799
45.2876
45.2951
45.3025
45.3097
45.3167
45.3235
45.3301
45.3365
45.3427
45.3487
45.3545
45.3601
45.3655
45.3706
45.3756
45.3803
45.3848
45.3891
45.3931
45.3969
45.4005
45.4039
45.407
45.4099
45.4126
45.415
45.4172
45.4191
45.4208
45.4222
45.4235
45.4244
45.4252
45.4257
45.4259
51.278
51.2765
51.2733
51.2688
51.263
51.2561
51.2482
51.2392
51.2293
51.2184
51.2065
51.1937
51.1799
51.1652
51.1495
51.1328
51.1152
51.0966
51.077
51.0565
51.035
51.0126
50.9892
50.9649
50.9396
50.9135
50.8864
50.8585
50.8296
50.7999
50.7693
50.7379
50.7056
50.6724
50.6385
50.6037
50.5681
50.5318
50.4947
50.4568
50.4181
50.3788
50.3387
50.2979
50.2564
50.2142
50.1714
50.1279
50.0838
50.0391
49.9937
49.9478
49.9013
49.8543
49.8067
49.7586
49.7101
49.661
49.6114
49.5614
49.511
49.4601
49.4088
49.3572
49.3051
49.2528
49.2001
49.147
49.0937
49.0401
48.9863
48.9321
48.8778
48.8233
48.7685
48.7136
48.6585
48.6033
48.548
48.4925
48.437
48.3814
48.3257
48.2701
48.2143
48.1586
48.1029
48.0473
47.9917
47.9361
47.8806
47.8253
47.77
47.7149
47.6599
47.6051
47.5505
47.496
47.4418
47.3877
47.334
47.2804
47.2272
47.1742
47.1215
47.0691
47.0171
46.9653
46.9139
46.8629
46.8123
46.762
46.7122
46.6627
46.6137
46.5651
46.5169
46.4692
46.422
46.3752
46.3289
46.2831
46.2378
46.1931
46.1488
46.1051
46.0619
46.0193
45.9772
45.9356
45.8947
45.8543
45.8145
45.7753
45.7366
45.6986
45.6612
45.6243
45.5881
45.5525
45.5176
45.4832
45.4495
45.4164
45.384
45.3521
45.321
45.2904
45.2605
45.2313
45.2027
45.1747
45.1474
45.1207
45.0947
45.0693
45.0446
45.0205
44.9971
44.9743
44.9521
44.9306
44.9098
44.8895
44.8699
44.851
44.8326
44.8149
44.7978
44.7814
44.7655
44.7503
44.7356
44.7216
44.7082
44.6953
44.6831
44.6714
44.6603
44.6498
44.6399
44.6305
44.6216
44.6134
44.6056
44.5984
44.5918
44.5856
44.58
44.5749
44.5703
44.5662
44.5625
44.5594
44.5567
44.5545
44.5528
44.5515
44.5507
44.5503
44.5503
44.5507
44.5516
44.5529
44.5545
44.5566
44.559
44.5618
44.565
44.5685
44.5723
44.5765
44.5811
44.5859
44.5911
44.5966
44.6023
44.6084
44.6147
44.6213
44.6282
44.6353
44.6427
44.6503
44.6581
44.6661
44.6744
44.6829
44.6915
44.7003
44.7093
44.7185
44.7279
44.7374
44.747
44.7568
44.7667
44.7767
44.7868
44.797
44.8074
44.8178
44.8283
44.8389
44.8495
44.8602
44.8709
44.8817
44.8925
44.9034
44.9142
44.9251
44.936
44.9469
44.9578
44.9686
44.9795
44.9903
45.0011
45.0118
45.0225
45.0331
45.0437
45.0542
45.0647
45.0751
45.0853
45.0955
45.1056
45.1156
45.1255
45.1353
45.145
45.1545
45.164
45.1733
45.1824
45.1914
45.2003
45.209
45.2176
45.226
45.2342
45.2423
45.2502
45.258
45.2655
45.2729
45.2801
45.2871
45.2939
45.3005
45.3069
45.3131
45.3191
45.3249
45.3305
45.3359
45.341
45.346
45.3507
45.3552
45.3595
45.3635
45.3673
45.3709
45.3743
45.3774
45.3803
45.3829
45.3854
45.3875
45.3895
45.3912
45.3926
45.3938
45.3948
45.3955
45.396
45.3963
51.2058
51.2042
51.2009
51.1962
51.1901
51.1828
51.1745
51.1652
51.1549
51.1437
51.1316
51.1186
51.1046
51.0897
51.0739
51.0571
51.0394
51.0207
51.001
50.9805
50.959
50.9365
50.9131
50.8888
50.8635
50.8374
50.8103
50.7824
50.7535
50.7238
50.6932
50.6618
50.6295
50.5964
50.5625
50.5277
50.4922
50.4558
50.4187
50.3809
50.3422
50.3029
50.2628
50.2221
50.1806
50.1385
50.0957
50.0522
50.0082
49.9635
49.9182
49.8723
49.8259
49.7789
49.7313
49.6833
49.6347
49.5857
49.5362
49.4862
49.4358
49.385
49.3337
49.2821
49.2301
49.1778
49.1251
49.0722
49.0189
48.9653
48.9115
48.8575
48.8032
48.7487
48.694
48.6391
48.5841
48.5289
48.4736
48.4182
48.3627
48.3072
48.2516
48.196
48.1403
48.0846
48.029
47.9734
47.9178
47.8623
47.8069
47.7516
47.6964
47.6413
47.5864
47.5316
47.477
47.4226
47.3684
47.3145
47.2607
47.2072
47.154
47.1011
47.0485
46.9961
46.9441
46.8924
46.8411
46.7902
46.7396
46.6894
46.6395
46.5901
46.5412
46.4926
46.4445
46.3968
46.3496
46.3029
46.2567
46.211
46.1657
46.121
46.0768
46.0331
45.99
45.9474
45.9053
45.8638
45.8229
45.7826
45.7428
45.7036
45.665
45.6271
45.5897
45.5529
45.5167
45.4812
45.4462
45.4119
45.3783
45.3452
45.3128
45.281
45.2499
45.2194
45.1895
45.1603
45.1317
45.1038
45.0765
45.0499
45.0239
44.9986
44.9739
44.9498
44.9264
44.9037
44.8816
44.8601
44.8393
44.8191
44.7995
44.7806
44.7623
44.7446
44.7275
44.7111
44.6952
44.68
44.6654
44.6514
44.638
44.6252
44.613
44.6013
44.5903
44.5798
44.5698
44.5605
44.5517
44.5434
44.5357
44.5285
44.5219
44.5158
44.5102
44.5051
44.5005
44.4964
44.4928
44.4896
44.487
44.4848
44.4831
44.4818
44.481
44.4806
44.4806
44.4811
44.482
44.4833
44.4849
44.487
44.4894
44.4922
44.4954
44.4989
44.5028
44.507
44.5116
44.5164
44.5216
44.5271
44.5329
44.5389
44.5453
44.5519
44.5587
44.5659
44.5732
44.5808
44.5887
44.5967
44.605
44.6134
44.6221
44.6309
44.6399
44.6491
44.6585
44.6679
44.6776
44.6874
44.6973
44.7073
44.7174
44.7276
44.738
44.7484
44.7589
44.7694
44.7801
44.7908
44.8015
44.8123
44.8231
44.8339
44.8448
44.8557
44.8666
44.8775
44.8883
44.8992
44.91
44.9208
44.9316
44.9424
44.9531
44.9637
44.9743
44.9848
44.9952
45.0056
45.0159
45.0261
45.0362
45.0462
45.0561
45.0658
45.0755
45.085
45.0945
45.1037
45.1129
45.1219
45.1308
45.1395
45.1481
45.1565
45.1647
45.1728
45.1807
45.1884
45.196
45.2033
45.2105
45.2175
45.2243
45.2309
45.2373
45.2435
45.2495
45.2553
45.2609
45.2663
45.2714
45.2764
45.2811
45.2856
45.2899
45.2939
45.2977
45.3013
45.3047
45.3078
45.3107
45.3133
45.3157
45.3179
45.3199
45.3216
45.323
45.3242
45.3252
45.3259
45.3264
45.3267
51.1668
51.1653
51.162
51.1574
51.1514
51.1442
51.1359
51.1267
51.1164
51.1053
51.0931
51.0801
51.0661
51.0512
51.0353
51.0185
51.0007
50.982
50.9623
50.9417
50.9201
50.8976
50.8742
50.8499
50.8246
50.7984
50.7713
50.7433
50.7145
50.6847
50.6541
50.6227
50.5904
50.5573
50.5233
50.4885
50.453
50.4166
50.3795
50.3416
50.303
50.2637
50.2236
50.1828
50.1413
50.0992
50.0564
50.0129
49.9688
49.9242
49.8789
49.833
49.7865
49.7395
49.692
49.6439
49.5954
49.5463
49.4968
49.4468
49.3964
49.3456
49.2943
49.2427
49.1907
49.1384
49.0858
49.0328
48.9795
48.9259
48.8721
48.818
48.7637
48.7092
48.6545
48.5997
48.5446
48.4895
48.4342
48.3788
48.3233
48.2678
48.2121
48.1565
48.1008
48.0452
47.9895
47.9339
47.8784
47.8229
47.7674
47.7121
47.6569
47.6019
47.5469
47.4922
47.4376
47.3832
47.329
47.275
47.2213
47.1678
47.1146
47.0617
47.009
46.9567
46.9047
46.853
46.8017
46.7507
46.7001
46.6499
46.6001
46.5507
46.5018
46.4532
46.4051
46.3575
46.3103
46.2636
46.2173
46.1716
46.1264
46.0816
46.0374
45.9938
45.9506
45.9081
45.866
45.8245
45.7836
45.7433
45.7036
45.6644
45.6258
45.5878
45.5504
45.5137
45.4775
45.442
45.4071
45.3728
45.3391
45.3061
45.2737
45.2419
45.2108
45.1803
45.1504
45.1212
45.0927
45.0648
45.0375
45.0109
44.9849
44.9596
44.9349
44.9109
44.8875
44.8647
44.8426
44.8212
44.8004
44.7802
44.7606
44.7417
44.7234
44.7057
44.6887
44.6723
44.6565
44.6413
44.6267
44.6127
44.5993
44.5865
44.5743
44.5626
44.5516
44.5411
44.5312
44.5219
44.5131
44.5048
44.4971
44.49
44.4833
44.4772
44.4716
44.4666
44.462
44.4579
44.4543
44.4512
44.4486
44.4464
44.4447
44.4434
44.4426
44.4423
44.4423
44.4428
44.4437
44.445
44.4466
44.4487
44.4512
44.454
44.4572
44.4607
44.4646
44.4688
44.4734
44.4783
44.4835
44.489
44.4947
44.5008
44.5072
44.5138
44.5207
44.5278
44.5352
44.5428
44.5506
44.5587
44.567
44.5754
44.5841
44.5929
44.602
44.6112
44.6205
44.63
44.6397
44.6494
44.6594
44.6694
44.6795
44.6898
44.7001
44.7105
44.721
44.7316
44.7423
44.753
44.7637
44.7745
44.7853
44.7962
44.807
44.8179
44.8288
44.8397
44.8506
44.8615
44.8723
44.8831
44.8939
44.9047
44.9154
44.926
44.9366
44.9471
44.9575
44.9679
44.9782
44.9884
44.9985
45.0085
45.0184
45.0282
45.0379
45.0474
45.0568
45.0661
45.0753
45.0843
45.0932
45.1019
45.1105
45.1189
45.1271
45.1352
45.1431
45.1508
45.1584
45.1658
45.1729
45.1799
45.1867
45.1933
45.1998
45.206
45.212
45.2178
45.2234
45.2287
45.2339
45.2388
45.2435
45.248
45.2523
45.2564
45.2602
45.2638
45.2671
45.2703
45.2731
45.2758
45.2782
45.2804
45.2823
45.284
45.2855
45.2867
45.2877
45.2884
45.2889
45.2891
51.0998
51.0982
51.0949
51.0902
51.0841
51.0768
51.0684
51.059
51.0486
51.0372
51.0249
51.0117
50.9976
50.9825
50.9666
50.9496
50.9318
50.913
50.8932
50.8726
50.851
50.8284
50.805
50.7806
50.7553
50.7291
50.702
50.674
50.6451
50.6154
50.5848
50.5533
50.521
50.4879
50.4539
50.4192
50.3836
50.3473
50.3102
50.2723
50.2337
50.1943
50.1543
50.1135
50.072
50.0299
49.9871
49.9437
49.8996
49.8549
49.8097
49.7638
49.7174
49.6704
49.6229
49.5748
49.5263
49.4772
49.4277
49.3778
49.3274
49.2766
49.2254
49.1738
49.1218
49.0695
49.0169
48.9639
48.9107
48.8571
48.8033
48.7493
48.695
48.6405
48.5859
48.531
48.476
48.4209
48.3656
48.3103
48.2548
48.1993
48.1437
48.0881
48.0325
47.9768
47.9212
47.8656
47.8101
47.7546
47.6992
47.6439
47.5888
47.5337
47.4788
47.4241
47.3695
47.3152
47.261
47.2071
47.1534
47.0999
47.0467
46.9939
46.9412
46.889
46.837
46.7853
46.734
46.6831
46.6326
46.5824
46.5326
46.4832
46.4343
46.3858
46.3377
46.2901
46.2429
46.1963
46.1501
46.1044
46.0592
46.0145
45.9703
45.9267
45.8836
45.841
45.799
45.7576
45.7167
45.6764
45.6367
45.5975
45.559
45.5211
45.4837
45.447
45.4109
45.3753
45.3405
45.3062
45.2726
45.2396
45.2072
45.1754
45.1443
45.1139
45.0841
45.0549
45.0264
44.9985
44.9713
44.9447
44.9187
44.8934
44.8688
44.8448
44.8214
44.7987
44.7767
44.7552
44.7344
44.7143
44.6948
44.6759
44.6576
44.64
44.6229
44.6065
44.5908
44.5756
44.561
44.5471
44.5337
44.5209
44.5087
44.4971
44.4861
44.4757
44.4658
44.4564
44.4477
44.4395
44.4318
44.4246
44.418
44.412
44.4064
44.4013
44.3968
44.3927
44.3892
44.3861
44.3835
44.3813
44.3796
44.3784
44.3776
44.3772
44.3773
44.3778
44.3787
44.38
44.3817
44.3838
44.3863
44.3891
44.3923
44.3959
44.3998
44.404
44.4086
44.4135
44.4187
44.4242
44.43
44.4361
44.4424
44.4491
44.456
44.4631
44.4705
44.4781
44.486
44.4941
44.5023
44.5108
44.5195
44.5284
44.5374
44.5466
44.5559
44.5655
44.5751
44.5849
44.5948
44.6049
44.615
44.6253
44.6356
44.646
44.6565
44.6671
44.6778
44.6885
44.6992
44.71
44.7209
44.7317
44.7426
44.7535
44.7644
44.7753
44.7862
44.797
44.8079
44.8187
44.8295
44.8402
44.8509
44.8616
44.8722
44.8827
44.8931
44.9035
44.9138
44.924
44.9341
44.9441
44.954
44.9638
44.9735
44.983
44.9924
45.0017
45.0109
45.0199
45.0288
45.0375
45.0461
45.0545
45.0627
45.0708
45.0787
45.0864
45.094
45.1014
45.1086
45.1156
45.1224
45.129
45.1354
45.1416
45.1476
45.1534
45.159
45.1644
45.1695
45.1744
45.1792
45.1837
45.1879
45.192
45.1958
45.1994
45.2027
45.2059
45.2088
45.2114
45.2138
45.216
45.2179
45.2196
45.2211
45.2223
45.2233
45.224
45.2245
45.2248
51.0553
51.0537
51.0505
51.0459
51.0399
51.0327
51.0244
51.015
51.0047
50.9934
50.9811
50.9679
50.9537
50.9386
50.9226
50.9056
50.8877
50.8689
50.8491
50.8284
50.8068
50.7842
50.7607
50.7363
50.7109
50.6847
50.6576
50.6295
50.6006
50.5709
50.5402
50.5088
50.4764
50.4433
50.4093
50.3745
50.3389
50.3026
50.2654
50.2276
50.1889
50.1496
50.1095
50.0687
50.0272
49.9851
49.9423
49.8988
49.8547
49.81
49.7647
49.7189
49.6724
49.6254
49.5779
49.5298
49.4813
49.4322
49.3827
49.3327
49.2823
49.2315
49.1803
49.1287
49.0767
49.0244
48.9717
48.9188
48.8655
48.812
48.7582
48.7041
48.6498
48.5953
48.5406
48.4858
48.4308
48.3756
48.3204
48.265
48.2095
48.154
48.0984
48.0428
47.9871
47.9315
47.8759
47.8203
47.7647
47.7093
47.6539
47.5986
47.5434
47.4883
47.4334
47.3787
47.3241
47.2698
47.2156
47.1616
47.1079
47.0545
47.0013
46.9484
46.8958
46.8435
46.7915
46.7399
46.6886
46.6377
46.5871
46.5369
46.4872
46.4378
46.3888
46.3403
46.2923
46.2446
46.1975
46.1508
46.1046
46.0589
46.0137
45.9691
45.9249
45.8813
45.8382
45.7956
45.7536
45.7122
45.6713
45.631
45.5913
45.5522
45.5136
45.4757
45.4384
45.4016
45.3655
45.33
45.2951
45.2609
45.2273
45.1943
45.1619
45.1302
45.0991
45.0687
45.0389
45.0097
44.9812
44.9533
44.9261
44.8995
44.8736
44.8483
44.8237
44.7997
44.7764
44.7537
44.7316
44.7102
44.6894
44.6693
44.6498
44.6309
44.6127
44.595
44.578
44.5617
44.5459
44.5307
44.5162
44.5023
44.4889
44.4762
44.464
44.4524
44.4414
44.431
44.4211
44.4118
44.4031
44.3949
44.3872
44.3801
44.3735
44.3674
44.3619
44.3568
44.3523
44.3483
44.3447
44.3417
44.3391
44.3369
44.3353
44.3341
44.3333
44.3329
44.333
44.3336
44.3345
44.3358
44.3375
44.3396
44.3421
44.345
44.3482
44.3518
44.3557
44.36
44.3646
44.3695
44.3747
44.3802
44.386
44.3921
44.3985
44.4052
44.4121
44.4193
44.4267
44.4343
44.4422
44.4503
44.4586
44.467
44.4757
44.4846
44.4937
44.5029
44.5123
44.5218
44.5315
44.5413
44.5512
44.5612
44.5714
44.5817
44.592
44.6025
44.613
44.6236
44.6343
44.645
44.6557
44.6665
44.6774
44.6883
44.6991
44.7101
44.721
44.7319
44.7428
44.7536
44.7645
44.7753
44.7861
44.7969
44.8076
44.8183
44.8289
44.8394
44.8499
44.8602
44.8705
44.8807
44.8909
44.9009
44.9108
44.9206
44.9302
44.9398
44.9492
44.9585
44.9677
44.9767
44.9856
44.9943
45.0029
45.0113
45.0196
45.0277
45.0356
45.0433
45.0509
45.0582
45.0654
45.0724
45.0792
45.0859
45.0923
45.0985
45.1045
45.1103
45.1159
45.1213
45.1264
45.1314
45.1361
45.1406
45.1449
45.1489
45.1527
45.1563
45.1597
45.1628
45.1657
45.1684
45.1708
45.173
45.1749
45.1766
45.1781
45.1793
45.1802
45.181
45.1815
45.1817
50.9919
50.9903
50.9871
50.9825
50.9765
50.9693
50.9609
50.9515
50.9411
50.9297
50.9173
50.904
50.8898
50.8746
50.8585
50.8414
50.8235
50.8046
50.7847
50.7639
50.7422
50.7196
50.6961
50.6716
50.6463
50.62
50.5928
50.5648
50.5359
50.5061
50.4754
50.4439
50.4116
50.3784
50.3444
50.3096
50.274
50.2376
50.2005
50.1626
50.124
50.0846
50.0445
50.0037
49.9622
49.9201
49.8773
49.8338
49.7897
49.745
49.6998
49.6539
49.6074
49.5604
49.5129
49.4648
49.4163
49.3672
49.3177
49.2678
49.2174
49.1666
49.1153
49.0637
49.0118
48.9594
48.9068
48.8538
48.8006
48.747
48.6932
48.6392
48.5849
48.5304
48.4757
48.4209
48.3659
48.3107
48.2555
48.2001
48.1447
48.0891
48.0335
47.9779
47.9223
47.8667
47.8111
47.7555
47.6999
47.6445
47.5891
47.5338
47.4786
47.4236
47.3687
47.314
47.2594
47.2051
47.1509
47.097
47.0433
46.9899
46.9367
46.8838
46.8312
46.7789
46.727
46.6754
46.6241
46.5732
46.5226
46.4725
46.4227
46.3734
46.3244
46.2759
46.2279
46.1803
46.1332
46.0865
46.0403
45.9946
45.9495
45.9048
45.8607
45.8171
45.774
45.7315
45.6895
45.6481
45.6072
45.5669
45.5273
45.4881
45.4496
45.4117
45.3744
45.3377
45.3016
45.2661
45.2313
45.1971
45.1635
45.1305
45.0982
45.0665
45.0354
45.005
44.9752
44.9461
44.9176
44.8897
44.8626
44.836
44.8101
44.7849
44.7603
44.7363
44.713
44.6903
44.6683
44.6469
44.6261
44.606
44.5866
44.5677
44.5495
44.5319
44.5149
44.4986
44.4828
44.4677
44.4532
44.4393
44.4259
44.4132
44.4011
44.3895
44.3785
44.3681
44.3583
44.349
44.3403
44.3321
44.3245
44.3174
44.3108
44.3048
44.2993
44.2943
44.2898
44.2858
44.2822
44.2792
44.2766
44.2745
44.2729
44.2717
44.2709
44.2706
44.2707
44.2713
44.2722
44.2736
44.2753
44.2775
44.28
44.2828
44.2861
44.2897
44.2936
44.2979
44.3025
44.3075
44.3127
44.3182
44.3241
44.3302
44.3366
44.3433
44.3502
44.3574
44.3648
44.3725
44.3804
44.3885
44.3968
44.4053
44.414
44.4229
44.432
44.4412
44.4506
44.4601
44.4698
44.4796
44.4896
44.4997
44.5098
44.5201
44.5305
44.5409
44.5515
44.5621
44.5728
44.5835
44.5943
44.6051
44.6159
44.6268
44.6377
44.6486
44.6596
44.6705
44.6814
44.6923
44.7031
44.714
44.7248
44.7356
44.7463
44.7569
44.7676
44.7781
44.7886
44.7989
44.8093
44.8195
44.8296
44.8396
44.8495
44.8593
44.869
44.8786
44.888
44.8973
44.9065
44.9155
44.9244
44.9331
44.9417
44.9501
44.9584
44.9665
44.9744
44.9821
44.9897
44.9971
45.0043
45.0113
45.0181
45.0247
45.0311
45.0373
45.0434
45.0492
45.0548
45.0601
45.0653
45.0702
45.075
45.0795
45.0837
45.0878
45.0916
45.0952
45.0986
45.1017
45.1046
45.1072
45.1097
45.1118
45.1138
45.1155
45.1169
45.1182
45.1191
45.1199
45.1204
45.1206
50.9437
50.9422
50.9391
50.9345
50.9286
50.9215
50.9132
50.9039
50.8935
50.8821
50.8698
50.8565
50.8422
50.827
50.8109
50.7938
50.7758
50.7569
50.737
50.7162
50.6944
50.6717
50.6482
50.6237
50.5983
50.572
50.5448
50.5167
50.4877
50.4579
50.4272
50.3956
50.3633
50.3301
50.2961
50.2612
50.2256
50.1892
50.152
50.1141
50.0755
50.0361
49.9959
49.9551
49.9136
49.8714
49.8286
49.7851
49.741
49.6963
49.651
49.6051
49.5586
49.5116
49.464
49.4159
49.3674
49.3183
49.2688
49.2188
49.1684
49.1175
49.0663
49.0147
48.9627
48.9103
48.8577
48.8047
48.7514
48.6978
48.644
48.5899
48.5356
48.4811
48.4264
48.3716
48.3165
48.2614
48.2061
48.1507
48.0952
48.0397
47.9841
47.9285
47.8728
47.8172
47.7615
47.7059
47.6504
47.5949
47.5395
47.4842
47.429
47.374
47.319
47.2643
47.2097
47.1554
47.1012
47.0473
46.9936
46.9401
46.8869
46.834
46.7814
46.7291
46.6772
46.6255
46.5742
46.5233
46.4728
46.4226
46.3728
46.3235
46.2746
46.2261
46.178
46.1304
46.0833
46.0366
45.9904
45.9448
45.8996
45.8549
45.8108
45.7672
45.7241
45.6816
45.6396
45.5982
45.5573
45.5171
45.4774
45.4383
45.3998
45.3619
45.3246
45.2879
45.2518
45.2163
45.1815
45.1472
45.1137
45.0807
45.0484
45.0167
44.9856
44.9552
44.9255
44.8964
44.8679
44.8401
44.8129
44.7863
44.7605
44.7352
44.7106
44.6867
44.6634
44.6407
44.6187
44.5974
44.5766
44.5565
44.5371
44.5183
44.5001
44.4825
44.4655
44.4492
44.4335
44.4184
44.4039
44.39
44.3767
44.364
44.3519
44.3403
44.3294
44.319
44.3092
44.2999
44.2912
44.2831
44.2755
44.2684
44.2619
44.2559
44.2504
44.2454
44.2409
44.2369
44.2334
44.2304
44.2278
44.2258
44.2241
44.223
44.2223
44.222
44.2221
44.2227
44.2236
44.225
44.2268
44.229
44.2315
44.2344
44.2377
44.2413
44.2453
44.2496
44.2542
44.2592
44.2644
44.27
44.2759
44.282
44.2884
44.2951
44.3021
44.3093
44.3167
44.3244
44.3323
44.3405
44.3488
44.3573
44.3661
44.375
44.3841
44.3933
44.4027
44.4123
44.422
44.4318
44.4418
44.4519
44.4621
44.4724
44.4828
44.4933
44.5038
44.5144
44.5251
44.5359
44.5467
44.5575
44.5684
44.5793
44.5902
44.6011
44.6121
44.623
44.6339
44.6448
44.6557
44.6666
44.6774
44.6882
44.6989
44.7096
44.7202
44.7308
44.7412
44.7516
44.762
44.7722
44.7823
44.7924
44.8023
44.8121
44.8218
44.8314
44.8408
44.8501
44.8593
44.8684
44.8772
44.886
44.8946
44.903
44.9113
44.9194
44.9273
44.935
44.9426
44.95
44.9572
44.9642
44.971
44.9777
44.9841
44.9903
44.9963
45.0021
45.0077
45.0131
45.0183
45.0232
45.028
45.0325
45.0368
45.0408
45.0446
45.0482
45.0516
45.0547
45.0576
45.0603
45.0627
45.0649
45.0668
45.0685
45.07
45.0712
45.0722
45.0729
45.0734
45.0736
50.8828
50.8813
50.8782
50.8738
50.8679
50.8608
50.8525
50.8432
50.8328
50.8214
50.809
50.7956
50.7813
50.766
50.7498
50.7327
50.7146
50.6956
50.6757
50.6548
50.633
50.6103
50.5867
50.5621
50.5367
50.5103
50.4831
50.455
50.426
50.3961
50.3654
50.3338
50.3014
50.2682
50.2341
50.1993
50.1637
50.1272
50.09
50.0521
50.0134
49.974
49.9339
49.893
49.8515
49.8093
49.7665
49.723
49.6788
49.6341
49.5887
49.5428
49.4963
49.4493
49.4017
49.3536
49.305
49.256
49.2064
49.1564
49.106
49.0551
49.0039
48.9522
48.9002
48.8479
48.7952
48.7422
48.6889
48.6353
48.5815
48.5274
48.4731
48.4186
48.3639
48.309
48.254
48.1988
48.1435
48.0881
48.0326
47.977
47.9214
47.8658
47.8101
47.7545
47.6988
47.6432
47.5877
47.5322
47.4768
47.4215
47.3663
47.3112
47.2563
47.2016
47.147
47.0926
47.0385
46.9845
46.9308
46.8774
46.8242
46.7713
46.7187
46.6664
46.6144
46.5628
46.5115
46.4606
46.41
46.3599
46.3101
46.2608
46.2118
46.1633
46.1153
46.0677
46.0206
45.9739
45.9277
45.8821
45.8369
45.7922
45.7481
45.7045
45.6615
45.6189
45.577
45.5356
45.4947
45.4545
45.4148
45.3757
45.3372
45.2993
45.2621
45.2254
45.1893
45.1539
45.119
45.0848
45.0513
45.0183
44.986
44.9543
44.9233
44.8929
44.8632
44.8341
44.8056
44.7778
44.7507
44.7242
44.6983
44.6731
44.6485
44.6246
44.6013
44.5787
44.5567
44.5354
44.5147
44.4946