/*--------------------------------*- C++ -*----------------------------------*\
| =========                 |                                                 |
| \\      /  F ield         | OpenFOAM: The Open Source CFD Toolbox           |
|  \\    /   O peration     | Version:  2212                                  |
|   \\  /    A nd           | Website:  www.openfoam.com                      |
|    \\/     M anipulation  |                                                 |
\*---------------------------------------------------------------------------*/
FoamFile
{
    version     2.0;
    format      ascii;
    arch        "LSB;label=32;scalar=64";
    class       surfaceScalarField;
    location    "960";
    object      phi;
}
// * * * * * * * * * * * * * * * * * * * * * * * * * * * * * * * * * * * * * //

dimensions      [1 0 -1 0 0 0 0];

oriented        oriented;

internalField   nonuniform List<scalar> 
408640
(
-748.072
750.741
-1478.47
730.757
-2171.28
693.168
-2814.27
643.36
-3403.09
589.195
-3939.79
537.068
-4431.37
491.967
-4887.41
456.416
-5318.02
430.993
-5732.35
414.704
-6137.74
405.771
-6539.52
402.159
-6941.16
402.013
-7344.63
403.844
-7750.84
406.59
-8160.03
409.565
-8572.04
412.378
-8986.5
414.834
-9403
416.865
-9821.1
418.47
-10240.4
419.68
-10660.6
420.536
-11081.3
421.082
-11502.3
421.356
-11923.3
421.392
-12344.2
421.219
-12764.7
420.859
-13184.7
420.333
-13604
419.655
-14022.5
418.84
-14440
417.899
-14856.5
416.841
-15271.9
415.675
-15685.9
414.407
-16098.6
413.045
-16509.9
411.592
-16919.6
410.054
-17327.7
408.435
-17734.1
406.738
-18138.8
404.966
-18541.6
403.122
-18942.5
401.209
-19341.4
399.229
-19738.3
397.184
-20133
395.076
-20525.6
392.906
-20916
390.677
-21304.1
388.389
-21689.8
386.045
-22073.2
383.644
-22454.1
381.189
-22832.5
378.681
-23208.3
376.12
-23581.6
373.508
-23952.1
370.846
-24320
368.134
-24685.1
365.374
-25047.4
362.566
-25406.9
359.711
-25763.4
356.81
-26117
353.864
-26467.7
350.873
-26815.3
347.839
-27159.8
344.761
-27501.2
341.641
-27839.5
338.48
-28174.5
335.278
-28506.3
332.036
-28834.9
328.755
-29160.1
325.435
-29482
322.076
-29800.4
318.681
-30115.5
315.249
-30427.1
311.781
-30735.2
308.277
-31039.7
304.739
-31340.7
301.167
-31638.1
297.562
-31931.8
293.925
-32221.9
290.255
-32508.3
286.554
-32791
282.823
-33069.9
279.062
-33345
275.272
-33616.3
271.453
-33883.8
267.607
-34147.4
263.733
-34407.1
259.833
-34662.9
255.907
-34914.7
251.957
-35162.6
247.982
-35406.5
243.983
-35646.3
239.961
-35882.1
235.917
-36113.9
231.852
-36341.6
227.765
-36565.2
223.658
-36784.6
219.532
-36999.9
215.387
-37211.1
211.224
-37418
207.043
-37620.8
202.846
-37819.4
198.633
-38013.8
194.404
-38203.9
190.16
-38389.7
185.903
-38571.3
181.632
-38748.7
177.349
-38921.7
173.054
-39090.4
168.748
-39254.8
164.431
-39414.9
160.104
-39570.7
155.768
-39722.1
151.424
-39869.2
147.072
-40011.9
142.713
-40150.3
138.347
-40284.3
133.976
-40413.9
129.599
-40539.1
125.218
-40660
120.833
-40776.5
116.445
-40888.6
112.055
-40996.3
107.663
-41099.6
103.27
-41198.6
98.8758
-41293.1
94.4821
-41383.3
90.0892
-41469
85.6976
-41550.4
81.3081
-41627.4
76.9213
-41700
72.5377
-41768.3
68.1579
-41832.2
63.7827
-41891.7
59.4125
-41946.8
55.048
-41997.6
50.6898
-42044.1
46.3384
-42086.2
41.9945
-42124
37.6585
-42157.4
33.3311
-42186.6
29.0129
-42211.4
24.7043
-42232
20.4059
-42248.2
16.1183
-42260.2
11.842
-42268
7.57753
-42271.4
3.32538
-42270.7
-0.913919
-42265.7
-5.13987
-42256.5
-9.35196
-42243.2
-13.5497
-42225.6
-17.7327
-42203.9
-21.9003
-42178
-26.0522
-42148
-30.1879
-42113.9
-34.3069
-42075.7
-38.4088
-42033.4
-42.4931
-41987.1
-46.5595
-41936.7
-50.6075
-41882.3
-54.6367
-41823.8
-58.6468
-41761.4
-62.6372
-41695
-66.6076
-41624.7
-70.5577
-41550.5
-74.4871
-41472.3
-78.3954
-41390.3
-82.2822
-41304.4
-86.1473
-41214.6
-89.9903
-41121.1
-93.8108
-41023.7
-97.6086
-40922.6
-101.383
-40817.7
-105.135
-40709.1
-108.862
-40596.8
-112.566
-40480.9
-116.246
-40361.2
-119.901
-40238
-123.531
-40111.1
-127.136
-39980.7
-130.716
-39846.7
-134.271
-39709.2
-137.8
-39568.2
-141.303
-39423.7
-144.78
-39275.8
-148.23
-39124.5
-151.654
-38969.7
-155.051
-38811.6
-158.422
-38650.2
-161.765
-38485.4
-165.081
-38317.4
-168.37
-38146.1
-171.631
-37971.5
-174.865
-37793.8
-178.07
-37612.9
-181.248
-37428.8
-184.398
-37241.6
-187.519
-37051.4
-190.613
-36858
-193.677
-36661.7
-196.714
-36462.3
-199.722
-36259.9
-202.701
-36054.6
-205.652
-35846.4
-208.574
-35635.3
-211.467
-35421.4
-214.331
-35204.5
-217.166
-34984.9
-219.973
-34762.6
-222.75
-34537.4
-225.498
-34309.6
-228.218
-34079.1
-230.908
-33845.9
-233.569
-33610.1
-236.201
-33371.6
-238.805
-33130.6
-241.379
-32887.1
-243.924
-32641.1
-246.44
-32392.5
-248.927
-32141.5
-251.384
-31888.1
-253.813
-31632.3
-256.213
-31374.1
-258.585
-31113.6
-260.927
-30850.8
-263.24
-30585.6
-265.525
-30318.3
-267.781
-30048.7
-270.008
-29776.9
-272.207
-29502.9
-274.377
-29226.8
-276.519
-28948.6
-278.632
-28668.3
-280.717
-28385.9
-282.774
-28101.6
-284.803
-27815.2
-286.803
-27526.8
-288.776
-27236.5
-290.72
-26944.3
-292.637
-26650.2
-294.526
-26354.3
-296.387
-26056.5
-298.221
-25756.9
-300.027
-25455.5
-301.806
-25152.4
-303.558
-24847.6
-305.283
-24541
-306.98
-24232.8
-308.65
-23923
-310.294
-23611.5
-311.911
-23298.4
-313.501
-22983.8
-315.065
-22667.7
-316.602
-22350
-318.113
-22030.9
-319.598
-21710.2
-321.057
-21388.2
-322.49
-21064.8
-323.897
-20739.9
-325.278
-20413.8
-326.633
-20086.3
-327.963
-19757.5
-329.268
-19427.4
-330.547
-19096
-331.801
-18763.5
-333.03
-18429.7
-334.234
-18094.7
-335.413
-17758.6
-336.567
-17421.4
-337.697
-17083.1
-338.802
-16743.7
-339.883
-16403.2
-340.939
-16061.7
-341.971
-15719.2
-342.979
-15375.7
-343.963
-15031.2
-344.923
-14685.8
-345.86
-14339.5
-346.772
-13992.4
-347.661
-13644.3
-348.526
-13295.4
-349.369
-12945.7
-350.187
-12595.2
-350.983
-12243.9
-351.755
-11891.9
-352.505
-11539.1
-353.231
-11185.7
-353.935
-10831.5
-354.616
-10476.7
-355.274
-10121.3
-355.91
-9765.27
-356.523
-9408.63
-357.115
-9051.43
-357.684
-8693.68
-358.23
-8335.41
-358.755
-7976.64
-359.258
-7617.38
-359.739
-7257.66
-360.199
-6897.51
-360.636
-6536.94
-361.053
-6175.98
-361.447
-5814.65
-361.821
-5452.96
-362.173
-5090.94
-362.503
-4728.61
-362.812
-4366
-363.1
-4003.12
-363.367
-3639.99
-363.612
-3276.64
-363.836
-2913.09
-364.039
-2549.36
-364.219
-2185.47
-364.378
-1821.44
-364.515
-1457.29
-364.631
-1093.06
-364.724
-728.747
-364.796
-364.387
-364.846
-364.875
-738.378
1489.47
-1458.96
1451.7
-2143.97
1378.54
-2781.93
1281.69
-3368.3
1175.93
-3904.81
1073.95
-4397.88
985.412
-4856.45
915.374
-5290.12
865.035
-5707.58
832.547
-6115.92
814.487
-6520.29
806.911
-6924.11
806.202
-7329.33
809.446
-7736.92
814.555
-8147.16
820.175
-8559.94
825.526
-8974.95
830.217
-9391.82
834.103
-9810.16
837.173
-10229.6
839.481
-10649.8
841.107
-11070.5
842.129
-11491.4
842.623
-11912.3
842.652
-12333
842.27
-12753.3
841.522
-13173.1
840.445
-13592.1
839.07
-14010.4
837.423
-14427.6
835.528
-14843.9
833.401
-15258.9
831.059
-15672.7
828.517
-16085.1
825.785
-16496
822.874
-16905.4
819.794
-17313.2
816.551
-17719.3
813.153
-18123.6
809.607
-18526.1
805.917
-18926.7
802.09
-19325.3
798.128
-19721.8
794.037
-20116.2
789.82
-20508.5
785.48
-20898.6
781.021
-21286.3
776.446
-21671.7
771.757
-22054.7
766.956
-22435.3
762.047
-22813.4
757.031
-23188.9
751.91
-23561.8
746.687
-23932
741.363
-24299.6
735.941
-24664.4
730.421
-25026.3
724.806
-25385.5
719.098
-25741.7
713.297
-26095
707.406
-26445.3
701.427
-26792.6
695.36
-27136.8
689.207
-27477.9
682.969
-27815.8
676.649
-28150.6
670.247
-28482.1
663.764
-28810.3
657.204
-29135.2
650.565
-29456.8
643.851
-29775
637.062
-30089.7
630.2
-30401
623.266
-30708.8
616.262
-31013.1
609.188
-31313.8
602.047
-31610.9
594.839
-31904.4
587.566
-32194.2
580.23
-32480.3
572.831
-32762.7
565.371
-33041.3
557.852
-33316.2
550.274
-33587.2
542.639
-33854.4
534.949
-34117.8
527.205
-34377.2
519.408
-34632.7
511.559
-34884.3
503.661
-35131.9
495.713
-35375.6
487.719
-35615.2
479.678
-35850.8
471.593
-36082.3
463.465
-36309.7
455.295
-36533.1
447.085
-36752.3
438.836
-36967.4
430.549
-37178.3
422.226
-37385.1
413.868
-37587.6
405.477
-37786
397.053
-37980.1
388.599
-38170.1
380.116
-38355.7
371.604
-38537.1
363.066
-38714.2
354.503
-38887.1
345.917
-39055.6
337.307
-39219.9
328.677
-39379.8
320.027
-39535.3
311.359
-39686.6
302.674
-39833.5
293.974
-39976.1
285.259
-40114.3
276.531
-40248.1
267.792
-40377.6
259.042
-40502.7
250.284
-40623.4
241.518
-40739.7
232.746
-40851.7
223.969
-40959.2
215.189
-41062.4
206.406
-41161.2
197.622
-41255.7
188.839
-41345.7
180.057
-41431.3
171.277
-41512.6
162.502
-41589.5
153.732
-41662
144.969
-41730.2
136.213
-41794
127.467
-41853.4
118.73
-41908.4
110.005
-41959.1
101.293
-42005.5
92.5939
-42047.6
83.91
-42085.3
75.242
-42118.6
66.5912
-42147.7
57.9586
-42172.5
49.3454
-42193
40.7527
-42209.2
32.1814
-42221.1
23.6328
-42228.8
15.1078
-42232.3
6.60752
-42231.5
-1.86709
-42226.5
-10.315
-42217.3
-18.7352
-42203.8
-27.1267
-42186.3
-35.4886
-42164.5
-43.8199
-42138.7
-52.1197
-42108.6
-60.387
-42074.5
-68.6211
-42036.3
-76.8209
-41994
-84.9856
-41947.7
-93.1144
-41897.3
-101.206
-41842.9
-109.261
-41784.5
-117.277
-41722.1
-125.254
-41655.7
-133.191
-41585.4
-141.087
-41511.2
-148.942
-41433.1
-156.754
-41351.1
-164.524
-41265.2
-172.25
-41175.5
-179.932
-41082
-187.57
-40984.7
-195.161
-40883.7
-202.707
-40778.9
-210.206
-40670.3
-217.657
-40558.1
-225.061
-40442.2
-232.416
-40322.7
-239.722
-40199.5
-246.979
-40072.7
-254.186
-39942.4
-261.342
-39808.5
-268.447
-39671.1
-275.501
-39530.2
-282.504
-39385.8
-289.454
-39238
-296.351
-39086.8
-303.195
-38932.2
-309.986
-38774.2
-316.723
-38612.8
-323.406
-38448.2
-330.035
-38280.3
-336.608
-38109.1
-343.127
-37934.7
-349.59
-37757.1
-355.998
-37576.4
-362.35
-37392.4
-368.646
-37205.4
-374.886
-37015.3
-381.069
-36822.1
-387.195
-36625.9
-393.265
-36426.7
-399.277
-36224.5
-405.233
-36019.4
-411.13
-35811.4
-416.971
-35600.4
-422.754
-35386.7
-428.479
-35170
-434.146
-34950.6
-439.756
-34728.4
-445.307
-34503.5
-450.801
-34275.9
-456.236
-34045.5
-461.614
-33812.5
-466.933
-33576.9
-472.194
-33338.7
-477.397
-33097.9
-482.542
-32854.6
-487.629
-32608.8
-492.658
-32360.5
-497.629
-32109.7
-502.542
-31856.5
-507.397
-31601
-512.194
-31343
-516.933
-31082.7
-521.615
-30820.1
-526.239
-30555.2
-530.806
-30288.1
-535.315
-30018.8
-539.767
-29747.2
-544.162
-29473.5
-548.499
-29197.7
-552.78
-28919.7
-557.004
-28639.7
-561.172
-28357.6
-565.283
-28073.5
-569.337
-27787.4
-573.336
-27499.3
-577.278
-27209.3
-581.165
-26917.3
-584.996
-26623.5
-588.771
-26327.8
-592.492
-26030.3
-596.157
-25731
-599.767
-25430
-603.323
-25127.1
-606.824
-24822.6
-610.271
-24516.3
-613.664
-24208.4
-617.002
-23898.9
-620.288
-23587.7
-623.519
-23275
-626.698
-22960.6
-629.823
-22644.8
-632.896
-22327.4
-635.916
-22008.6
-638.884
-21688.3
-641.799
-21366.6
-644.663
-21043.5
-647.475
-20719
-650.235
-20393.1
-652.944
-20065.9
-655.603
-19737.4
-658.21
-19407.7
-660.767
-19076.7
-663.273
-18744.4
-665.729
-18411
-668.135
-18076.4
-670.492
-17740.6
-672.799
-17403.7
-675.057
-17065.7
-677.266
-16726.6
-679.426
-16386.5
-681.537
-16045.3
-683.6
-15703.2
-685.614
-15360
-687.581
-15015.9
-689.5
-14670.9
-691.371
-14324.9
-693.195
-13978.1
-694.972
-13630.4
-696.701
-13281.9
-698.384
-12932.5
-700.021
-12582.3
-701.611
-12231.4
-703.154
-11879.7
-704.652
-11527.4
-706.104
-11174.3
-707.51
-10820.5
-708.871
-10466
-710.187
-10111
-711.458
-9755.29
-712.684
-9399.02
-713.866
-9042.18
-715.003
-8684.8
-716.096
-8326.89
-717.144
-7968.48
-718.15
-7609.59
-719.111
-7250.24
-720.029
-6890.46
-720.904
-6530.26
-721.736
-6169.66
-722.525
-5808.7
-723.271
-5447.38
-723.974
-5085.73
-724.635
-4723.77
-725.253
-4361.53
-725.829
-3999.02
-726.362
-3636.27
-726.852
-3273.29
-727.3
-2910.11
-727.704
-2546.75
-728.065
-2183.23
-728.383
-1819.57
-728.657
-1455.8
-728.888
-1091.94
-729.075
-728.004
-729.218
-364.018
-729.318
-729.379
-723.52
2213.35
-1430.38
2158.91
-2104.44
2052.96
-2735.12
1912.73
-3317.97
1759.15
-3854.29
1610.64
-4349.7
1481.2
-4812.27
1378.32
-5250.73
1303.88
-5673.15
1255.35
-6086.17
1227.88
-6494.68
1215.81
-6902
1213.9
-7310.1
1217.92
-7719.98
1224.81
-8132.01
1232.58
-8546.17
1240.05
-8962.22
1246.65
-9379.88
1252.12
-9798.79
1256.45
-10218.6
1259.69
-10639.1
1261.96
-11060
1263.36
-11481
1263.99
-11901.9
1263.94
-12322.6
1263.3
-12742.8
1262.12
-13162.5
1260.45
-13581.4
1258.35
-13999.5
1255.85
-14416.6
1252.97
-14832.6
1249.76
-15247.4
1246.23
-15661
1242.4
-16073.1
1238.28
-16483.8
1233.91
-16893
1229.27
-17300.5
1224.4
-17706.3
1219.3
-18110.4
1213.97
-18512.6
1208.43
-18912.8
1202.68
-19311.1
1196.74
-19707.4
1190.6
-20101.5
1184.27
-20493.5
1177.76
-20883.2
1171.07
-21270.7
1164.2
-21655.8
1157.17
-22038.5
1149.97
-22418.8
1142.6
-22796.6
1135.08
-23171.8
1127.4
-23544.4
1119.57
-23914.3
1111.58
-24281.6
1103.45
-24646.1
1095.17
-25007.7
1086.75
-25366.6
1078.19
-25722.5
1069.49
-26075.5
1060.65
-26425.5
1051.69
-26772.5
1042.59
-27116.4
1033.36
-27457.2
1024.01
-27794.9
1014.53
-28129.3
1004.93
-28460.6
995.206
-28788.5
985.367
-29113.1
975.413
-29434.4
965.344
-29752.3
955.164
-30066.8
944.874
-30377.8
934.476
-30685.3
923.972
-30989.3
913.365
-31289.8
902.656
-31586.6
891.848
-31879.8
880.942
-32169.4
869.941
-32455.2
858.846
-32737.3
847.66
-33015.7
836.385
-33290.3
825.022
-33561.1
813.574
-33828.1
802.042
-34091.2
790.43
-34350.4
778.738
-34605.6
766.969
-34857
755.125
-35104.4
743.208
-35347.8
731.221
-35587.1
719.164
-35822.5
707.041
-36053.8
694.853
-36281
682.603
-36504.1
670.292
-36723.1
657.922
-36938
645.496
-37148.7
633.016
-37355.3
620.484
-37557.6
607.901
-37755.8
595.271
-37949.8
582.594
-38139.5
569.874
-38324.9
557.111
-38506.1
544.309
-38683.1
531.47
-38855.7
518.594
-39024.1
505.686
-39188.1
492.745
-39347.9
479.775
-39503.3
466.778
-39654.4
453.755
-39801.1
440.71
-39943.5
427.642
-40081.5
414.556
-40215.2
401.452
-40344.5
388.333
-40469.5
375.201
-40590.1
362.057
-40706.3
348.905
-40818.1
335.745
-40925.5
322.579
-41028.6
309.41
-41127.3
296.24
-41221.5
283.07
-41311.5
269.902
-41397
256.739
-41478.1
243.581
-41554.9
230.432
-41627.3
217.292
-41695.4
204.164
-41759.1
191.05
-41818.4
177.951
-41873.3
164.869
-41924
151.806
-41970.3
138.763
-42012.2
125.742
-42049.8
112.746
-42083.1
99.7754
-42112.2
86.8322
-42136.9
73.918
-42157.3
61.0345
-42173.4
48.1833
-42185.3
35.3659
-42192.9
22.5841
-42196.3
9.83928
-42195.5
-2.86698
-42190.4
-15.5332
-42181.2
-28.1578
-42167.8
-40.7394
-42150.1
-53.2766
-42128.4
-65.7679
-42102.5
-78.2119
-42072.4
-90.6072
-42038.3
-102.953
-42000.1
-115.247
-41957.8
-127.488
-41911.4
-139.676
-41861
-151.808
-41806.6
-163.884
-41748.2
-175.902
-41685.8
-187.862
-41619.5
-199.762
-41549.2
-211.6
-41475
-223.377
-41396.9
-235.09
-41315
-246.739
-41229.1
-258.323
-41139.5
-269.84
-41046
-281.291
-40948.7
-292.672
-40847.7
-303.985
-40743
-315.228
-40634.5
-326.4
-40522.3
-337.499
-40406.5
-348.527
-40287
-359.481
-40163.9
-370.36
-40037.2
-381.165
-39906.9
-391.894
-39773.1
-402.547
-39635.8
-413.122
-39495
-423.62
-39350.7
-434.04
-39203
-444.38
-39051.8
-454.641
-38897.3
-464.822
-38739.4
-474.922
-38578.2
-484.941
-38413.7
-494.879
-38245.9
-504.734
-38074.8
-514.507
-37900.5
-524.197
-37723.1
-533.804
-37542.4
-543.327
-37358.6
-552.765
-37171.8
-562.12
-36981.8
-571.389
-36788.7
-580.574
-36592.7
-589.673
-36393.6
-598.687
-36191.6
-607.615
-35986.6
-616.457
-35778.7
-625.212
-35568
-633.882
-35354.3
-642.464
-35137.9
-650.961
-34918.6
-659.37
-34696.6
-667.693
-34471.9
-675.928
-34244.4
-684.077
-34014.3
-692.138
-33781.5
-700.113
-33546
-708
-33308
-715.8
-33067.4
-723.513
-32824.3
-731.139
-32578.7
-738.678
-32330.6
-746.13
-32080
-753.495
-31827
-760.773
-31571.7
-767.964
-31313.9
-775.069
-31053.8
-782.087
-30791.5
-789.019
-30526.8
-795.865
-30259.9
-802.625
-29990.8
-809.299
-29719.5
-815.887
-29446
-822.389
-29170.4
-828.806
-28892.7
-835.139
-28612.9
-841.386
-28331
-847.548
-28047.2
-853.627
-27761.3
-859.62
-27473.5
-865.53
-27183.7
-871.357
-26892
-877.1
-26598.5
-882.759
-26303.1
-888.336
-26005.8
-893.831
-25706.8
-899.243
-25406
-904.573
-25103.4
-909.821
-24799.1
-914.988
-24493.2
-920.074
-24185.5
-925.079
-23876.2
-930.003
-23565.4
-934.848
-23252.9
-939.613
-22938.9
-944.298
-22623.3
-948.904
-22306.2
-953.431
-21987.7
-957.879
-21667.7
-962.25
-21346.3
-966.542
-21023.4
-970.757
-20699.2
-974.895
-20373.7
-978.956
-20046.8
-982.941
-19718.6
-986.849
-19389.2
-990.682
-19058.4
-994.439
-18726.5
-998.121
-18393.4
-1001.73
-18059.1
-1005.26
-17723.6
-1008.72
-17387
-1012.1
-17049.4
-1015.41
-16710.6
-1018.65
-16370.8
-1021.82
-16030
-1024.91
-15688.1
-1027.93
-15345.3
-1030.88
-15001.5
-1033.75
-14656.8
-1036.56
-14311.2
-1039.29
-13964.7
-1041.95
-13617.3
-1044.55
-13269.1
-1047.07
-12920
-1049.52
-12570.2
-1051.91
-12219.6
-1054.22
-11868.3
-1056.46
-11516.2
-1058.64
-11163.5
-1060.75
-10810
-1062.79
-10455.9
-1064.76
-10101.2
-1066.67
-9745.87
-1068.5
-9389.94
-1070.27
-9033.45
-1071.98
-8676.41
-1073.62
-8318.84
-1075.19
-7960.78
-1076.7
-7602.23
-1078.14
-7243.23
-1079.51
-6883.79
-1080.83
-6523.94
-1082.07
-6163.69
-1083.25
-5803.08
-1084.37
-5442.11
-1085.43
-5080.81
-1086.42
-4719.2
-1087.34
-4357.31
-1088.21
-3995.15
-1089.01
-3632.75
-1089.74
-3270.12
-1090.41
-2907.29
-1091.02
-2544.28
-1091.56
-2181.12
-1092.04
-1817.81
-1092.45
-1454.39
-1092.79
-1090.88
-1093.07
-727.297
-1093.29
-363.662
-1093.44
-1093.53
-703.541
2917.25
-1391.9
2847.63
-2051.21
2712.63
-2672.1
2533.98
-3250.28
2337.71
-3786.5
2147.24
-4285.31
1980.38
-4753.53
1846.92
-5198.77
1749.5
-5628.2
1685.16
-6047.83
1647.88
-6462.21
1630.57
-6874.52
1626.58
-7286.73
1630.5
-7699.92
1638.37
-8114.56
1647.6
-8530.77
1656.63
-8948.43
1664.68
-9367.32
1671.38
-9787.19
1676.68
-10207.8
1680.64
-10628.8
1683.37
-11050.1
1685
-11471.4
1685.65
-11892.5
1685.44
-12313.4
1684.46
-12733.7
1682.79
-13153.4
1680.48
-13572.3
1677.61
-13990.3
1674.22
-14407.3
1670.34
-14823.2
1666.01
-15237.9
1661.27
-15651.3
1656.13
-16063.3
1650.62
-16473.8
1644.76
-16882.8
1638.57
-17290.1
1632.05
-17695.7
1625.23
-18099.5
1618.12
-18501.5
1610.72
-18901.6
1603.05
-19299.6
1595.11
-19695.6
1586.92
-20089.5
1578.48
-20481.3
1569.79
-20870.8
1560.87
-21258
1551.71
-21642.9
1542.33
-22025.3
1532.72
-22405.3
1522.9
-22782.8
1512.87
-23157.8
1502.63
-23530.1
1492.18
-23899.8
1481.54
-24266.8
1470.69
-24631
1459.66
-24992.4
1448.43
-25351
1437.01
-25706.7
1425.42
-26059.4
1413.64
-26409.2
1401.68
-26755.9
1389.55
-27099.6
1377.25
-27440.1
1364.78
-27777.5
1352.15
-28111.7
1339.35
-28442.7
1326.39
-28770.3
1313.27
-29094.7
1300
-29415.8
1286.58
-29733.4
1273.01
-30047.6
1259.29
-30358.4
1245.43
-30665.7
1231.43
-30969.4
1217.29
-31269.6
1203.02
-31566.2
1188.61
-31859.1
1174.07
-32148.4
1159.41
-32434.1
1144.62
-32716
1129.71
-32994.1
1114.68
-33268.5
1099.53
-33539
1084.27
-33805.7
1068.9
-34068.6
1053.42
-34327.6
1037.84
-34582.6
1022.15
-34833.8
1006.36
-35080.9
990.481
-35324.1
974.502
-35563.3
958.431
-35798.4
942.272
-36029.5
926.026
-36256.5
909.697
-36479.4
893.288
-36698.2
876.8
-36912.8
860.237
-37123.4
843.603
-37329.7
826.898
-37531.9
810.127
-37729.8
793.291
-37923.6
776.395
-38113.1
759.44
-38298.4
742.429
-38479.4
725.365
-38656.2
708.251
-38828.6
691.09
-38996.8
673.884
-39160.7
656.636
-39320.3
639.349
-39475.5
622.025
-39626.4
604.668
-39773
587.279
-39915.2
569.862
-40053.1
552.42
-40186.6
534.954
-40315.8
517.468
-40440.6
499.965
-40561
482.447
-40677
464.916
-40788.7
447.375
-40896
429.828
-40998.9
412.276
-41097.5
394.721
-41191.6
377.168
-41281.4
359.618
-41366.8
342.073
-41447.8
324.536
-41524.5
307.01
-41596.8
289.498
-41664.7
272.001
-41728.3
254.521
-41787.5
237.063
-41842.4
219.626
-41892.9
202.216
-41939.1
184.832
-41980.9
167.478
-42018.5
150.157
-42051.7
132.869
-42080.6
115.619
-42105.2
98.4067
-42125.6
81.2356
-42141.6
64.1076
-42153.4
47.0249
-42161
29.9894
-42164.3
13.0033
-42163.4
-3.93131
-42158.3
-20.8125
-42149
-37.6383
-42135.5
-54.4067
-42117.8
-71.1158
-42096
-87.7638
-42070.1
-104.349
-42040
-120.869
-42005.8
-137.322
-41967.6
-153.707
-41925.3
-170.022
-41878.9
-186.265
-41828.5
-202.434
-41774
-218.528
-41715.6
-234.545
-41653.2
-250.484
-41586.8
-266.343
-41516.6
-282.121
-41442.4
-297.816
-41364.3
-313.427
-41282.3
-328.951
-41196.5
-344.389
-41106.8
-359.739
-41013.4
-374.998
-40916.1
-390.167
-40815.1
-405.243
-40710.4
-420.226
-40601.9
-435.115
-40489.8
-449.908
-40374
-464.604
-40254.6
-479.202
-40131.5
-493.701
-40004.8
-508.1
-39874.6
-522.398
-39740.9
-536.595
-39603.6
-550.688
-39462.8
-564.678
-39318.6
-578.564
-39171
-592.344
-39019.9
-606.019
-38865.4
-619.586
-38707.6
-633.046
-38546.5
-646.398
-38382
-659.642
-38214.3
-672.775
-38043.3
-685.799
-37869.2
-698.712
-37691.8
-711.514
-37511.2
-724.204
-37327.5
-736.782
-37140.8
-749.248
-36950.9
-761.601
-36758
-773.84
-36562
-785.966
-36363.1
-797.977
-36161.2
-809.875
-35956.3
-821.657
-35748.6
-833.325
-35537.9
-844.878
-35324.4
-856.315
-35108.1
-867.637
-34889
-878.843
-34667.1
-889.933
-34442.5
-900.908
-34215.2
-911.766
-33985.2
-922.509
-33752.6
-933.135
-33517.3
-943.645
-33279.5
-954.039
-33039
-964.317
-32796.1
-974.479
-32550.6
-984.525
-32302.7
-994.455
-32052.3
-1004.27
-31799.5
-1013.97
-31544.3
-1023.55
-31286.8
-1033.02
-31026.9
-1042.37
-30764.7
-1051.61
-30500.3
-1060.73
-30233.5
-1069.74
-29964.6
-1078.63
-29693.5
-1087.41
-29420.2
-1096.07
-29144.8
-1104.62
-28867.3
-1113.06
-28587.8
-1121.38
-28306.1
-1129.6
-28022.5
-1137.69
-27736.8
-1145.68
-27449.2
-1153.56
-27159.7
-1161.32
-26868.3
-1168.97
-26574.9
-1176.51
-26279.8
-1183.94
-25982.8
-1191.27
-25684
-1198.48
-25383.4
-1205.58
-25081.1
-1212.57
-24777
-1219.46
-24471.3
-1226.23
-24163.9
-1232.9
-23854.9
-1239.46
-23544.3
-1245.92
-23232.1
-1252.27
-22918.3
-1258.51
-22603
-1264.65
-22286.2
-1270.68
-21967.9
-1276.61
-21648.2
-1282.43
-21327.1
-1288.15
-21004.5
-1293.77
-20680.6
-1299.28
-20355.3
-1304.69
-20028.7
-1310
-19700.8
-1315.21
-19371.6
-1320.31
-19041.2
-1325.32
-18709.6
-1330.22
-18376.7
-1335.03
-18042.7
-1339.74
-17707.5
-1344.34
-17371.2
-1348.85
-17033.9
-1353.26
-16695.4
-1357.58
-16355.9
-1361.79
-16015.3
-1365.91
-15673.8
-1369.94
-15331.3
-1373.87
-14987.8
-1377.7
-14643.4
-1381.44
-14298.1
-1385.08
-13951.9
-1388.63
-13604.8
-1392.08
-13256.9
-1395.44
-12908.2
-1398.71
-12558.7
-1401.89
-12208.4
-1404.97
-11857.4
-1407.96
-11505.7
-1410.86
-11153.2
-1413.67
-10800.1
-1416.39
-10446.3
-1419.01
-10091.9
-1421.55
-9736.91
-1424
-9381.3
-1426.36
-9025.13
-1428.63
-8668.42
-1430.81
-8311.18
-1432.91
-7953.44
-1434.91
-7595.23
-1436.84
-7236.56
-1438.67
-6877.45
-1440.42
-6517.92
-1442.08
-6158.01
-1443.65
-5797.72
-1445.14
-5437.09
-1446.55
-5076.12
-1447.87
-4714.85
-1449.1
-4353.29
-1450.25
-3991.46
-1451.32
-3629.39
-1452.3
-3267.1
-1453.19
-2904.61
-1454
-2541.94
-1454.72
-2179.1
-1455.35
-1816.14
-1455.9
-1453.05
-1456.36
-1089.88
-1456.74
-726.628
-1457.02
-363.33
-1457.22
-1457.34
-684.163
3601.76
-1354.7
3518.53
-1999.64
3357.93
-2610.7
3145.4
-3183.84
2911.21
-3719.34
2683.12
-4220.83
2482.25
-4694.05
2320.51
-5145.53
2201.36
-5581.59
2121.59
-6007.63
2074.3
-6427.84
2051.16
-6845.21
2044.33
-7261.67
2047.34
-7678.37
2055.44
-8095.87
2065.47
-8514.37
2075.51
-8933.87
2084.54
-9354.23
2092.11
-9775.26
2098.08
-10196.8
2102.51
-10618.5
2105.51
-11040.4
2107.22
-11462.2
2107.77
-11883.6
2107.29
-12304.7
2105.88
-12725.2
2103.64
-13145
2100.64
-13564
2096.95
-13982.1
2092.62
-14399.1
2087.7
-14815
2082.23
-15229.6
2076.24
-15642.9
2069.78
-16054.8
2062.85
-16465.2
2055.49
-16874
2047.72
-17281.2
2039.56
-17686.7
2031.01
-18090.3
2022.1
-18492.1
2012.84
-18892
2003.23
-19289.8
1993.3
-19685.7
1983.05
-20079.4
1972.48
-20470.9
1961.62
-20860.2
1950.46
-21247.2
1939
-21631.8
1927.27
-22014.1
1915.26
-22393.9
1902.98
-22771.1
1890.44
-23145.9
1877.63
-23518
1864.57
-23887.4
1851.26
-24254.2
1837.71
-24618.2
1823.91
-24979.4
1809.88
-25337.7
1795.61
-25693.1
1781.11
-26045.7
1766.39
-26395.2
1751.45
-26741.7
1736.29
-27085.1
1720.91
-27425.4
1705.33
-27762.6
1689.53
-28096.5
1673.54
-28427.3
1657.34
-28754.7
1640.95
-29078.9
1624.37
-29399.7
1607.59
-29717.1
1590.63
-30031.1
1573.49
-30341.6
1556.17
-30648.7
1538.67
-30952.2
1521
-31252.2
1503.16
-31548.5
1485.15
-31841.3
1466.99
-32130.4
1448.66
-32415.8
1430.18
-32697.4
1411.54
-32975.4
1392.76
-33249.5
1373.83
-33519.9
1354.76
-33786.4
1335.55
-34049
1316.21
-34307.8
1296.73
-34562.6
1277.13
-34813.5
1257.4
-35060.5
1237.55
-35303.5
1217.58
-35542.4
1197.5
-35777.4
1177.3
-36008.3
1157
-36235.1
1136.6
-36457.8
1116.09
-36676.4
1095.49
-36890.9
1074.79
-37101.2
1054
-37307.4
1033.13
-37509.3
1012.17
-37707.1
991.13
-37900.7
970.015
-38090
948.828
-38275.1
927.571
-38456
906.247
-38632.6
884.861
-38804.9
863.416
-38972.9
841.915
-39136.6
820.361
-39296
798.759
-39451.1
777.111
-39601.8
755.42
-39748.2
733.692
-39890.3
711.927
-40028
690.131
-40161.4
668.306
-40290.4
646.456
-40415.1
624.583
-40535.3
602.692
-40651.3
580.786
-40762.8
558.868
-40870
536.94
-40972.7
515.007
-41071.1
493.072
-41165.2
471.137
-41254.8
449.207
-41340.1
427.283
-41421
405.37
-41497.6
383.47
-41569.7
361.587
-41637.6
339.723
-41701
317.881
-41760.1
296.066
-41814.9
274.278
-41865.3
252.522
-41911.4
230.801
-41953.1
209.116
-41990.6
187.472
-42023.7
165.871
-42052.5
144.315
-42077.1
122.808
-42097.3
101.352
-42113.3
79.9505
-42125
58.6051
-42132.5
37.3188
-42135.8
16.0943
-42134.8
-5.06585
-42129.6
-26.1592
-42120.2
-47.1833
-42106.7
-68.1356
-42089
-89.0138
-42067.1
-109.815
-42041.1
-130.538
-42011
-151.18
-41976.8
-171.738
-41938.5
-192.211
-41896.1
-212.596
-41849.7
-232.891
-41799.2
-253.095
-41744.8
-273.204
-41686.3
-293.217
-41623.9
-313.133
-41557.5
-332.948
-41487.2
-352.662
-41413
-372.272
-41334.9
-391.777
-41252.9
-411.174
-41167
-430.463
-41077.4
-449.641
-40983.9
-468.707
-40886.7
-487.66
-40785.7
-506.497
-40681
-525.217
-40572.5
-543.819
-40460.4
-562.302
-40344.6
-580.663
-40225.2
-598.902
-40102.2
-617.017
-39975.6
-635.008
-39845.4
-652.872
-39711.6
-670.609
-39574.4
-688.218
-39433.7
-705.697
-39289.5
-723.046
-39141.9
-740.263
-38990.9
-757.347
-38836.5
-774.298
-38678.7
-791.115
-38517.6
-807.796
-38353.2
-824.342
-38185.6
-840.751
-38014.7
-857.022
-37840.6
-873.155
-37663.3
-889.149
-37482.8
-905.004
-37299.2
-920.718
-37112.5
-936.292
-36922.7
-951.725
-36729.9
-967.016
-36534
-982.165
-36335.2
-997.171
-36133.4
-1012.03
-35928.6
-1026.75
-35721
-1041.33
-35510.4
-1055.76
-35297.1
-1070.05
-35080.9
-1084.2
-34861.9
-1098.2
-34640.1
-1112.05
-34415.7
-1125.76
-34188.5
-1139.33
-33958.6
-1152.75
-33726.1
-1166.02
-33491
-1179.15
-33253.2
-1192.14
-33013
-1204.98
-32770.2
-1217.67
-32524.9
-1230.22
-32277.1
-1242.63
-32026.8
-1254.89
-31774.2
-1267
-31519.2
-1278.97
-31261.8
-1290.8
-31002.1
-1302.48
-30740.1
-1314.02
-30475.8
-1325.42
-30209.2
-1336.67
-29940.5
-1347.78
-29669.6
-1358.75
-29396.5
-1369.57
-29121.3
-1380.25
-28844
-1390.79
-28564.6
-1401.19
-28283.1
-1411.45
-27999.7
-1421.57
-27714.2
-1431.54
-27426.8
-1441.38
-27137.5
-1451.08
-26846.3
-1460.64
-26553.1
-1470.06
-26258.2
-1479.34
-25961.4
-1488.49
-25662.8
-1497.49
-25362.5
-1506.37
-25060.4
-1515.1
-24756.6
-1523.7
-24451.1
-1532.17
-24143.9
-1540.5
-23835.1
-1548.69
-23524.7
-1556.76
-23212.8
-1564.69
-22899.2
-1572.48
-22584.2
-1580.15
-22267.6
-1587.68
-21949.6
-1595.09
-21630.1
-1602.36
-21309.2
-1609.51
-20986.9
-1616.52
-20663.2
-1623.41
-20338.2
-1630.17
-20011.8
-1636.8
-19684.2
-1643.3
-19355.3
-1649.68
-19025.1
-1655.93
-18693.8
-1662.06
-18361.2
-1668.07
-18027.4
-1673.94
-17692.5
-1679.7
-17356.5
-1685.33
-17019.4
-1690.84
-16681.2
-1696.23
-16342
-1701.5
-16001.7
-1706.64
-15660.5
-1711.67
-15318.2
-1716.58
-14975
-1721.36
-14630.9
-1726.03
-14285.9
-1730.58
-13940
-1735.01
-13593.2
-1739.33
-13245.6
-1743.52
-12897.2
-1747.61
-12547.9
-1751.57
-12198
-1755.42
-11847.2
-1759.16
-11495.8
-1762.78
-11143.6
-1766.29
-10790.8
-1769.68
-10437.4
-1772.97
-10083.2
-1776.14
-9728.53
-1779.19
-9373.23
-1782.14
-9017.36
-1784.98
-8660.95
-1787.7
-8304.02
-1790.32
-7946.58
-1792.83
-7588.67
-1795.23
-7230.31
-1797.52
-6871.51
-1799.7
-6512.29
-1801.77
-6152.69
-1803.74
-5792.71
-1805.6
-5432.39
-1807.36
-5071.73
-1809.01
-4710.77
-1810.55
-4349.52
-1811.98
-3988.01
-1813.31
-3626.25
-1814.54
-3264.27
-1815.65
-2902.09
-1816.66
-2539.73
-1817.56
-2177.22
-1818.36
-1814.56
-1819.04
-1451.79
-1819.62
-1088.93
-1820.08
-725.996
-1820.44
-363.012
-1820.69
-1820.84
-664.507
4266.62
-1316.99
4171.36
-1947.24
3988.54
-2548.03
3746.55
-3115.62
3479.17
-3649.91
3217.78
-4153.66
2986.38
-4631.58
2798.81
-5089.16
2659.32
-5531.87
2564.68
-5964.46
2507.27
-6390.73
2477.81
-6813.47
2467.44
-7234.54
2468.78
-7655.1
2476.38
-8075.79
2486.54
-8496.92
2497
-8918.55
2506.54
-9340.65
2514.57
-9763.09
2520.89
-10185.7
2525.53
-10608.5
2528.58
-11031.1
2530.19
-11453.4
2530.49
-11875.4
2529.62
-12296.9
2527.7
-12717.7
2524.81
-13137.7
2521.04
-13556.9
2516.47
-13975.1
2511.15
-14392.2
2505.15
-14808.1
2498.5
-15222.8
2491.24
-15636.1
2483.42
-16047.9
2475.06
-16458.3
2466.18
-16867.1
2456.81
-17274.1
2446.97
-17679.5
2436.69
-18083.1
2425.97
-18484.7
2414.83
-18884.5
2403.28
-19282.2
2391.35
-19677.9
2379.03
-20071.4
2366.34
-20462.8
2353.29
-20851.9
2339.88
-21238.7
2326.13
-21623.2
2312.04
-22005.3
2297.62
-22384.9
2282.88
-22762
2267.82
-23136.6
2252.45
-23508.5
2236.78
-23877.8
2220.81
-24244.3
2204.54
-24608.1
2187.98
-24969.1
2171.14
-25327.3
2154.01
-25682.5
2136.62
-26034.8
2118.95
-26384.2
2101.02
-26730.4
2082.83
-27073.7
2064.38
-27413.8
2045.68
-27750.8
2026.73
-28084.5
2007.53
-28415.1
1988.1
-28742.3
1968.43
-29066.3
1948.53
-29386.9
1928.41
-29704.1
1908.06
-30017.9
1887.49
-30328.3
1866.7
-30635.1
1845.71
-30938.4
1824.51
-31238.2
1803.1
-31534.4
1781.5
-31826.9
1759.7
-32115.8
1737.72
-32401
1715.54
-32682.5
1693.18
-32960.2
1670.65
-33234.2
1647.94
-33504.4
1625.06
-33770.7
1602.01
-34033.2
1578.81
-34291.7
1555.44
-34546.4
1531.92
-34797.1
1508.25
-35043.9
1484.43