/*--------------------------------*- C++ -*----------------------------------*\
| =========                 |                                                 |
| \\      /  F ield         | OpenFOAM: The Open Source CFD Toolbox           |
|  \\    /   O peration     | Version:  2212                                  |
|   \\  /    A nd           | Website:  www.openfoam.com                      |
|    \\/     M anipulation  |                                                 |
\*---------------------------------------------------------------------------*/
FoamFile
{
    version     2.0;
    format      ascii;
    arch        "LSB;label=32;scalar=64";
    class       volScalarField;
    location    "110";
    object      p_rgh;
}
// * * * * * * * * * * * * * * * * * * * * * * * * * * * * * * * * * * * * * //

dimensions      [1 -1 -2 0 0 0 0];

internalField   nonuniform List<scalar> 
204800
(
-11.9456
-11.9395
-11.9269
-11.9083
-11.8834
-11.8522
-11.8149
-11.7713
-11.7216
-11.6657
-11.6038
-11.5357
-11.4617
-11.3817
-11.2959
-11.2042
-11.1068
-11.0037
-10.895
-10.7807
-10.6609
-10.5357
-10.4052
-10.2694
-10.1285
-9.98241
-9.8313
-9.67524
-9.51431
-9.34858
-9.17814
-9.00305
-8.82339
-8.63925
-8.4507
-8.25781
-8.06066
-7.85933
-7.6539
-7.44444
-7.23103
-7.01376
-6.79271
-6.56795
-6.33957
-6.10766
-5.8723
-5.63357
-5.39157
-5.14638
-4.8981
-4.64681
-4.3926
-4.13557
-3.87581
-3.61341
-3.34846
-3.08107
-2.81133
-2.53932
-2.26516
-1.98893
-1.71072
-1.43065
-1.14879
-0.865258
-0.580135
-0.293522
-0.00551295
0.283797
0.574313
0.865943
1.15859
1.45217
1.74659
2.04175
2.33758
2.63397
2.93085
3.22812
3.52571
3.82354
4.12151
4.41955
4.71758
5.01553
5.31331
5.61086
5.90811
6.20497
6.50139
6.7973
7.09262
7.38731
7.68128
7.9745
8.26689
8.5584
8.84897
9.13856
9.4271
9.71456
10.0009
10.286
10.5699
10.8526
11.1339
11.4139
11.6924
11.9696
12.2453
12.5195
12.7922
13.0633
13.3328
13.6008
13.8671
14.1317
14.3946
14.6559
14.9154
15.1731
15.4291
15.6834
15.9358
16.1864
16.4352
16.6822
16.9273
17.1705
17.4119
17.6515
17.8891
18.1249
18.3587
18.5907
18.8207
19.0489
19.2751
19.4995
19.7219
19.9424
20.1611
20.3778
20.5926
20.8055
21.0164
21.2255
21.4327
21.638
21.8415
22.043
22.2427
22.4405
22.6364
22.8305
23.0227
23.2131
23.4016
23.5884
23.7733
23.9564
24.1377
24.3172
24.4949
24.6709
24.845
25.0175
25.1881
25.3571
25.5243
25.6898
25.8536
26.0157
26.1761
26.3349
26.492
26.6474
26.8012
26.9533
27.1039
27.2528
27.4001
27.5458
27.69
27.8326
27.9736
28.1131
28.2511
28.3875
28.5224
28.6558
28.7878
28.9182
29.0472
29.1747
29.3007
29.4254
29.5486
29.6704
29.7907
29.9097
30.0273
30.1435
30.2584
30.3719
30.484
30.5948
30.7043
30.8125
30.9193
31.0249
31.1292
31.2322
31.3339
31.4343
31.5336
31.6315
31.7283
31.8238
31.9181
32.0112
32.1031
32.1938
32.2833
32.3716
32.4588
32.5448
32.6297
32.7135
32.7961
32.8775
32.9579
33.0371
33.1153
33.1923
33.2683
33.3431
33.4169
33.4897
33.5613
33.632
33.7015
33.77
33.8375
33.904
33.9694
34.0338
34.0972
34.1596
34.221
34.2814
34.3408
34.3992
34.4567
34.5132
34.5687
34.6232
34.6768
34.7294
34.7811
34.8319
34.8817
34.9305
34.9784
35.0254
35.0715
35.1167
35.1609
35.2043
35.2467
35.2882
35.3289
35.3686
35.4074
35.4454
35.4824
35.5186
35.5539
35.5883
35.6219
35.6545
35.6863
35.7173
35.7473
35.7765
35.8049
35.8324
35.859
35.8848
35.9097
35.9338
35.957
35.9794
36.001
36.0217
36.0415
36.0606
36.0787
36.0961
36.1126
36.1283
36.1431
36.1572
36.1704
36.1827
36.1942
36.205
36.2148
36.2239
36.2321
36.2395
36.2461
36.2519
36.2568
36.2609
36.2642
36.2667
36.2683
36.2691
-11.8917
-11.8857
-11.8735
-11.8553
-11.831
-11.8007
-11.7643
-11.7219
-11.6734
-11.619
-11.5586
-11.4922
-11.42
-11.3419
-11.2579
-11.1681
-11.0726
-10.9714
-10.8645
-10.752
-10.634
-10.5105
-10.3815
-10.2473
-10.1077
-9.96292
-9.813
-9.65803
-9.49809
-9.33325
-9.16361
-8.98924
-8.81023
-8.62666
-8.43863
-8.24621
-8.0495
-7.84857
-7.64351
-7.43441
-7.22135
-7.00441
-6.78369
-6.55926
-6.33121
-6.09964
-5.86461
-5.62623
-5.38458
-5.13975
-4.89183
-4.64091
-4.38708
-4.13043
-3.87106
-3.60906
-3.34452
-3.07754
-2.80821
-2.53663
-2.2629
-1.9871
-1.70934
-1.42971
-1.1483
-0.865223
-0.580562
-0.294414
-0.00687453
0.281961
0.571999
0.863147
1.15531
1.4484
1.74232
2.03699
2.33232
2.62821
2.92458
3.22135
3.51843
3.81574
4.1132
4.41072
4.70824
5.00566
5.30293
5.59996
5.89668
6.19302
6.48891
6.78429
7.07909
7.37325
7.6667
7.95938
8.25125
8.54223
8.83228
9.12134
9.40936
9.69629
9.98208
10.2667
10.5501
10.8322
11.113
11.3925
11.6705
11.9472
12.2223
12.496
12.7682
13.0388
13.3078
13.5753
13.8411
14.1052
14.3676
14.6284
14.8874
15.1447
15.4002
15.6539
15.9058
16.156
16.4043
16.6508
16.8954
17.1382
17.3791
17.6182
17.8554
18.0907
18.3241
18.5556
18.7852
19.0129
19.2387
19.4626
19.6846
19.9047
20.1229
20.3392
20.5535
20.766
20.9766
21.1853
21.392
21.5969
21.8
22.0011
22.2004
22.3978
22.5933
22.787
22.9788
23.1689
23.357
23.5434
23.7279
23.9106
24.0916
24.2707
24.4481
24.6237
24.7975
24.9696
25.1399
25.3085
25.4754
25.6406
25.8041
25.9658
26.1259
26.2844
26.4411
26.5962
26.7497
26.9015
27.0518
27.2004
27.3474
27.4929
27.6367
27.779
27.9198
28.059
28.1966
28.3328
28.4674
28.6006
28.7322
28.8624
28.9911
29.1184
29.2442
29.3685
29.4915
29.613
29.7332
29.8519
29.9692
30.0852
30.1998
30.3131
30.425
30.5356
30.6449
30.7528
30.8594
30.9648
31.0688
31.1716
31.2731
31.3734
31.4724
31.5702
31.6667
31.762
31.8561
31.949
32.0408
32.1313
32.2206
32.3088
32.3958
32.4816
32.5663
32.6499
32.7323
32.8136
32.8938
32.9729
33.0509
33.1278
33.2036
33.2783
33.3519
33.4245
33.496
33.5665
33.6359
33.7043
33.7716
33.838
33.9032
33.9675
34.0308
34.0931
34.1543
34.2146
34.2739
34.3322
34.3895
34.4459
34.5013
34.5557
34.6092
34.6617
34.7133
34.7639
34.8136
34.8624
34.9102
34.9571
35.0031
35.0482
35.0923
35.1356
35.1779
35.2194
35.2599
35.2996
35.3383
35.3762
35.4132
35.4493
35.4845
35.5188
35.5523
35.5849
35.6166
35.6475
35.6775
35.7067
35.7349
35.7624
35.789
35.8147
35.8396
35.8636
35.8868
35.9091
35.9306
35.9513
35.9711
35.9901
36.0082
36.0256
36.042
36.0577
36.0725
36.0865
36.0997
36.112
36.1235
36.1342
36.1441
36.1531
36.1613
36.1687
36.1753
36.181
36.1859
36.19
36.1933
36.1958
36.1974
36.1982
-11.8931
-11.8872
-11.875
-11.8569
-11.8327
-11.8026
-11.7663
-11.7241
-11.6759
-11.6217
-11.5615
-11.4954
-11.4234
-11.3456
-11.2619
-11.1725
-11.0773
-10.9764
-10.8698
-10.7576
-10.6399
-10.5167
-10.388
-10.2539
-10.1146
-9.97
-9.82025
-9.66541
-9.50557
-9.3408
-9.17119
-8.99682
-8.81778
-8.63416
-8.44605
-8.25353
-8.0567
-7.85563
-7.65042
-7.44115
-7.22792
-7.01081
-6.7899
-6.56529
-6.33706
-6.1053
-5.87009
-5.63153
-5.3897
-5.1447
-4.89661
-4.64553
-4.39154
-4.13474
-3.87522
-3.61307
-3.34839
-3.08127
-2.81181
-2.5401
-2.26624
-1.99032
-1.71245
-1.4327
-1.15119
-0.868007
-0.583245
-0.297001
-0.00937107
0.279552
0.569673
0.8609
1.15314
1.4463
1.74029
2.03502
2.33041
2.62635
2.92278
3.21959
3.51672
3.81407
4.11156
4.40912
4.70666
5.00411
5.3014
5.59845
5.89518
6.19153
6.48743
6.78282
7.07762
7.37177
7.66522
7.9579
8.24975
8.54072
8.83075
9.11979
9.40778
9.69469
9.98046
10.265
10.5484
10.8305
11.1112
11.3907
11.6687
11.9453
12.2204
12.494
12.7662
13.0367
13.3057
13.5731
13.8388
14.1029
14.3652
14.6259
14.8849
15.1421
15.3975
15.6512
15.9031
16.1531
16.4014
16.6478
16.8924
17.1351
17.3759
17.6149
17.852
18.0872
18.3205
18.552
18.7815
19.0091
19.2349
19.4587
19.6806
19.9006
20.1187
20.3349
20.5492
20.7616
20.9721
21.1807
21.3874
21.5922
21.7951
21.9962
22.1954
22.3927
22.5881
22.7817
22.9735
23.1634
23.3515
23.5378
23.7222
23.9049
24.0857
24.2648
24.4421
24.6176
24.7913
24.9633
25.1336
25.3021
25.4689
25.634
25.7974
25.9591
26.1191
26.2775
26.4342
26.5892
26.7426
26.8944
27.0445
27.1931
27.34
27.4854
27.6292
27.7714
27.9121
28.0512
28.1888
28.3249
28.4594
28.5925
28.7241
28.8542
28.9828
29.11
29.2358
29.3601
29.483
29.6044
29.7245
29.8432
29.9604
30.0764
30.1909
30.3041
30.416
30.5265
30.6357
30.7436
30.8502
30.9554
31.0594
31.1622
31.2636
31.3638
31.4628
31.5605
31.657
31.7523
31.8463
31.9392
32.0308
32.1213
32.2106
32.2987
32.3856
32.4714
32.5561
32.6396
32.722
32.8032
32.8834
32.9624
33.0404
33.1172
33.193
33.2676
33.3412
33.4138
33.4853
33.5557
33.6251
33.6934
33.7607
33.827
33.8923
33.9565
34.0197
34.082
34.1432
34.2034
34.2627
34.321
34.3783
34.4346
34.49
34.5444
34.5978
34.6503
34.7018
34.7524
34.8021
34.8508
34.8986
34.9455
34.9915
35.0365
35.0807
35.1239
35.1662
35.2076
35.2481
35.2878
35.3265
35.3643
35.4013
35.4374
35.4726
35.5069
35.5404
35.5729
35.6047
35.6355
35.6655
35.6946
35.7229
35.7503
35.7769
35.8026
35.8275
35.8515
35.8747
35.897
35.9185
35.9391
35.9589
35.9779
35.996
36.0133
36.0298
36.0455
36.0603
36.0743
36.0874
36.0997
36.1112
36.1219
36.1318
36.1408
36.149
36.1564
36.163
36.1687
36.1736
36.1777
36.181
36.1835
36.1851
36.1859
-11.8569
-11.8511
-11.8392
-11.8215
-11.7979
-11.7683
-11.7329
-11.6916
-11.6444
-11.5914
-11.5325
-11.4678
-11.3973
-11.321
-11.2389
-11.1511
-11.0575
-10.9582
-10.8533
-10.7427
-10.6265
-10.5048
-10.3776
-10.245
-10.107
-9.96364
-9.81503
-9.66125
-9.50236
-9.33845
-9.16959
-8.99589
-8.81742
-8.63428
-8.44657
-8.25438
-8.05781
-7.85694
-7.65189
-7.44274
-7.22959
-7.01254
-6.79167
-6.56709
-6.33888
-6.10713
-5.87194
-5.6334
-5.39159
-5.14662
-4.89856
-4.64752
-4.39358
-4.13684
-3.87739
-3.61532
-3.35073
-3.0837
-2.81435
-2.54275
-2.26901
-1.99322
-1.71548
-1.43589
-1.15453
-0.871509
-0.586918
-0.300852
-0.0134075
0.275322
0.565244
0.856263
1.14829
1.44123
1.73499
2.02949
2.32463
2.62033
2.9165
3.21305
3.50991
3.80699
4.1042
4.40148
4.69873
4.99589
5.29288
5.58962
5.88605
6.18209
6.47767
6.77273
7.06721
7.36103
7.65415
7.94649
8.238
8.52862
8.8183
9.10699
9.39463
9.68118
9.96659
10.2508
10.5338
10.8155
11.0959
11.375
11.6526
11.9288
12.2036
12.4769
12.7486
13.0188
13.2874
13.5544
13.8197
14.0834
14.3454
14.6057
14.8643
15.1211
15.3761
15.6294
15.8809
16.1306
16.3785
16.6245
16.8687
17.111
17.3515
17.5901
17.8268
18.0616
18.2946
18.5256
18.7548
18.9821
19.2074
19.4309
19.6524
19.8721
20.0898
20.3056
20.5196
20.7316
20.9417
21.15
21.3563
21.5608
21.7634
21.9641
22.1629
22.3599
22.555
22.7483
22.9397
23.1293
23.317
23.503
23.6871
23.8694
24.0499
24.2287
24.4056
24.5808
24.7543
24.926
25.0959
25.2641
25.4306
25.5954
25.7585
25.9199
26.0796
26.2377
26.3941
26.5488
26.7019
26.8534
27.0033
27.1516
27.2982
27.4433
27.5869
27.7288
27.8692
28.0081
28.1454
28.2813
28.4156
28.5484
28.6797
28.8096
28.938
29.0649
29.1904
29.3145
29.4372
29.5584
29.6782
29.7967
29.9137
30.0294
30.1438
30.2567
30.3684
30.4787
30.5877
30.6954
30.8017
30.9068
31.0106
31.1132
31.2144
31.3144
31.4132
31.5107
31.607
31.7021
31.796
31.8886
31.9801
32.0704
32.1595
32.2475
32.3343
32.4199
32.5044
32.5877
32.67
32.7511
32.8311
32.9099
32.9877
33.0644
33.14
33.2146
33.288
33.3604
33.4318
33.5021
33.5713
33.6395
33.7067
33.7728
33.838
33.9021
33.9652
34.0273
34.0884
34.1485
34.2077
34.2658
34.323
34.3793
34.4345
34.4888
34.5421
34.5945
34.646
34.6965
34.7461
34.7947
34.8424
34.8892
34.9351
34.98
35.0241
35.0672
35.1094
35.1508
35.1912
35.2308
35.2694
35.3072
35.3441
35.3801
35.4152
35.4495
35.4829
35.5154
35.5471
35.5779
35.6078
35.6369
35.6651
35.6924
35.7189
35.7446
35.7694
35.7934
35.8165
35.8388
35.8603
35.8809
35.9006
35.9196
35.9377
35.955
35.9714
35.987
36.0018
36.0158
36.0289
36.0412
36.0527
36.0633
36.0732
36.0822
36.0904
36.0977
36.1043
36.11
36.1149
36.119
36.1223
36.1247
36.1264
36.1272
-11.8545
-11.8486
-11.8369
-11.8193
-11.7959
-11.7666
-11.7315
-11.6905
-11.6437
-11.5911
-11.5327
-11.4685
-11.3986
-11.3228
-11.2414
-11.1542
-11.0613
-10.9627
-10.8585
-10.7487
-10.6333
-10.5124
-10.3859
-10.254
-10.1167
-9.97408
-9.82613
-9.67296
-9.51462
-9.3512
-9.18278
-9.00943
-8.83125
-8.64833
-8.46075
-8.26863
-8.07205
-7.87112
-7.66594
-7.45662
-7.24324
-7.02593
-6.80477
-6.57987
-6.35132
-6.11923
-5.88368
-5.64477
-5.4026
-5.15727
-4.90885
-4.65745
-4.40317
-4.14608
-3.88629
-3.6239
-3.35899
-3.09165
-2.82199
-2.5501
-2.27608
-2.00001
-1.722
-1.44214
-1.16053
-0.877258
-0.592427
-0.306131
-0.0184632
0.270482
0.56061
0.851829
1.14404
1.43717
1.73111
2.02577
2.32107
2.61692
2.91324
3.20993
3.50692
3.80412
4.10145
4.39883
4.69618
4.99343
5.29051
5.58733
5.88382
6.17993
6.47557
6.77068
7.0652
7.35906
7.65221
7.94457
8.2361
8.52674
8.81643
9.10512
9.39276
9.6793
9.96469
10.2489
10.5319
10.8135
11.0939
11.3729
11.6505
11.9267
12.2014
12.4746
12.7463
13.0164
13.2849
13.5518
13.8171
14.0807
14.3426
14.6028
14.8613
15.118
15.373
15.6262
15.8776
16.1271
16.3749
16.6208
16.8649
17.1071
17.3475
17.5859
17.8226
18.0573
18.2901
18.521
18.7501
18.9772
19.2024
19.4257
19.6472
19.8667
20.0843
20.3
20.5138
20.7256
20.9356
21.1437
21.35
21.5543
21.7567
21.9573
22.156
22.3528
22.5478
22.7409
22.9322
23.1217
23.3093
23.4951
23.6791
23.8613
24.0416
24.2202
24.3971
24.5721
24.7454
24.917
25.0868
25.2549
25.4212
25.5859
25.7488
25.9101
26.0697
26.2276
26.3839
26.5385
26.6915
26.8428
26.9926
27.1407
27.2873
27.4322
27.5756
27.7175
27.8577
27.9965
28.1337
28.2694
28.4036
28.5363
28.6675
28.7973
28.9255
29.0524
29.1778
29.3017
29.4242
29.5454
29.6651
29.7834
29.9004
30.016
30.1302
30.2431
30.3546
30.4648
30.5737
30.6813
30.7875
30.8925
30.9962
31.0987
31.1998
31.2997
31.3984
31.4959
31.5921
31.687
31.7808
31.8734
31.9648
32.055
32.144
32.2319
32.3186
32.4041
32.4885
32.5718
32.654
32.735
32.8149
32.8937
32.9714
33.048
33.1236
33.198
33.2714
33.3437
33.415
33.4852
33.5544
33.6225
33.6897
33.7557
33.8208
33.8849
33.9479
34.01
34.071
34.1311
34.1902
34.2483
34.3054
34.3616
34.4168
34.471
34.5243
34.5766
34.628
34.6785
34.728
34.7766
34.8243
34.871
34.9168
34.9617
35.0057
35.0488
35.091
35.1323
35.1727
35.2122
35.2509
35.2886
35.3254
35.3614
35.3965
35.4307
35.4641
35.4966
35.5282
35.559
35.5889
35.6179
35.6461
35.6734
35.6999
35.7256
35.7504
35.7743
35.7974
35.8197
35.8411
35.8617
35.8814
35.9004
35.9184
35.9357
35.9521
35.9677
35.9825
35.9964
36.0095
36.0218
36.0333
36.044
36.0538
36.0628
36.071
36.0783
36.0849
36.0906
36.0955
36.0996
36.1029
36.1053
36.1069
36.1078
-11.8248
-11.819
-11.8075
-11.7903
-11.7673
-11.7387
-11.7042
-11.6641
-11.6183
-11.5667
-11.5094
-11.4465
-11.3778
-11.3035
-11.2235
-11.1378
-11.0465
-10.9495
-10.8469
-10.7388
-10.625
-10.5058
-10.381
-10.2507
-10.1149
-9.97382
-9.82733
-9.67554
-9.51851
-9.35631
-9.189
-9.01665
-8.83937
-8.65722
-8.47031
-8.27874
-8.0826
-7.88201
-7.67706
-7.46788
-7.25457
-7.03725
-6.81602
-6.591
-6.36229
-6.13
-5.89423
-5.65509
-5.41267
-5.16708
-4.91842
-4.66677
-4.41224
-4.15493
-3.89492
-3.6323
-3.36719
-3.09966
-2.82982
-2.55776
-2.28357
-2.00736
-1.72921
-1.44923
-1.1675
-0.884131
-0.599208
-0.312831
-0.0250924
0.263912
0.554089
0.845346
1.13759
1.43073
1.72468
2.01934
2.31463
2.61045
2.90674
3.20339
3.50032
3.79746
4.09472
4.39202
4.68929
4.98644
5.28341
5.58011
5.87648
6.17246
6.46796
6.76292
7.05729
7.35099
7.64396
7.93615
8.22749
8.51794
8.80743
9.09592
9.38334
9.66967
9.95484
10.2388
10.5215
10.803
11.0831
11.3619
11.6392
11.9151
12.1896
12.4625
12.7339
13.0037
13.272
13.5386
13.8036
14.0669
14.3285
14.5885
14.8466
15.1031
15.3577
15.6106
15.8617
16.111
16.3584
16.604
16.8478
17.0897
17.3297
17.5679
17.8042
18.0386
18.2711
18.5017
18.7304
18.9572
19.1821
19.4051
19.6262
19.8454
20.0627
20.278
20.4915
20.7031
20.9128
21.1206
21.3265
21.5305
21.7326
21.9328
22.1312
22.3277
22.5224
22.7152
22.9062
23.0953
23.2827
23.4681
23.6518
23.8337
24.0138
24.1921
24.3686
24.5434
24.7164
24.8876
25.0572
25.225
25.391
25.5554
25.7181
25.8791
26.0384
26.196
26.352
26.5063
26.6591
26.8101
26.9596
27.1075
27.2538
27.3985
27.5416
27.6832
27.8232
27.9617
28.0987
28.2341
28.3681
28.5005
28.6315
28.761
28.8891
29.0157
29.1408
29.2645
29.3868
29.5077
29.6272
29.7454
29.8621
29.9775
30.0915
30.2041
30.3155
30.4255
30.5341
30.6415
30.7476
30.8524
30.9559
31.0581
31.1591
31.2588
31.3573
31.4545
31.5506
31.6454
31.739
31.8314
31.9226
32.0126
32.1015
32.1892
32.2757
32.3611
32.4453
32.5285
32.6104
32.6913
32.7711
32.8497
32.9273
33.0038
33.0791
33.1535
33.2267
33.2989
33.37
33.4401
33.5092
33.5772
33.6442
33.7101
33.7751
33.839
33.9019
33.9638
34.0248
34.0847
34.1437
34.2017
34.2587
34.3148
34.3699
34.424
34.4772
34.5294
34.5807
34.6311
34.6805
34.729
34.7766
34.8232
34.869
34.9138
34.9577
35.0007
35.0428
35.0841
35.1244
35.1638
35.2024
35.24
35.2768
35.3127
35.3477
35.3819
35.4152
35.4476
35.4792
35.5099
35.5397
35.5687
35.5968
35.6241
35.6506
35.6762
35.7009
35.7248
35.7479
35.7701
35.7915
35.812
35.8317
35.8506
35.8687
35.8859
35.9023
35.9178
35.9326
35.9465
35.9596
35.9719
35.9833
35.9939
36.0037
36.0127
36.0209
36.0282
36.0348
36.0405
36.0454
36.0495
36.0527
36.0552
36.0568
36.0576
-11.8152
-11.8095
-11.7981
-11.7811
-11.7584
-11.73
-11.6959
-11.6562
-11.6109
-11.5599
-11.5032
-11.4409
-11.373
-11.2994
-11.2203
-11.1355
-11.0452
-10.9492
-10.8477
-10.7406
-10.628
-10.5099
-10.3863
-10.2573
-10.1228
-9.98285
-9.83758
-9.68698
-9.5311
-9.37
-9.20373
-9.03235
-8.85594
-8.67458
-8.48835
-8.29735
-8.10167
-7.90142
-7.69671
-7.48764
-7.27435
-7.05693
-6.83553
-6.61025
-6.38121
-6.14853
-5.91233
-5.67272
-5.42981
-5.1837
-4.93451
-4.68233
-4.42726
-4.16941
-3.90887
-3.64574
-3.38011
-3.11208
-2.84175
-2.56921
-2.29455
-2.01788
-1.73928
-1.45886
-1.17671
-0.89293
-0.607607
-0.320841
-0.0327257
0.256644
0.547175
0.838773
1.13135
1.42481
1.71906
2.01401
2.30959
2.60569
2.90223
3.19913
3.4963
3.79367
4.09114
4.38865
4.68611
4.98344
5.28058
5.57745
5.87397
6.17009
6.46572
6.7608
7.05528
7.34908
7.64214
7.93441
8.22583
8.51634
8.80588
9.09441
9.38188
9.66823
9.95342
10.2374
10.5201
10.8016
11.0817
11.3604
11.6377
11.9136
12.188
12.4609
12.7323
13.0021
13.2702
13.5368
13.8017
14.0649
14.3265
14.5863
14.8444
15.1007
15.3553
15.608
15.859
16.1081
16.3555
16.6009
16.8446
17.0863
17.3262
17.5643
17.8004
18.0347
18.267
18.4975
18.726
18.9527
19.1774
19.4003
19.6212
19.8402
20.0573
20.2725
20.4858
20.6972
20.9068
21.1144
21.3201
21.5239
21.7259
21.9259
22.1241
22.3205
22.515
22.7076
22.8984
23.0874
23.2745
23.4598
23.6433
23.825
24.0049
24.183
24.3594
24.534
24.7068
24.8779
25.0472
25.2148
25.3807
25.5449
25.7074
25.8682
26.0273
26.1848
26.3406
26.4948
26.6473
26.7982
26.9475
27.0953
27.2414
27.3859
27.5289
27.6703
27.8101
27.9485
28.0853
28.2206
28.3544
28.4867
28.6175
28.7468
28.8747
29.0011
29.1261
29.2497
29.3719
29.4926
29.612
29.7299
29.8465
29.9617
30.0756
30.1881
30.2993
30.4092
30.5177
30.625
30.7309
30.8356
30.9389
31.041
31.1419
31.2415
31.3398
31.437
31.5329
31.6275
31.721
31.8133
31.9044
31.9943
32.0831
32.1706
32.2571
32.3423
32.4265
32.5095
32.5913
32.6721
32.7518
32.8303
32.9078
32.9841
33.0594
33.1336
33.2068
33.2789
33.3499
33.4199
33.4889
33.5568
33.6237
33.6896
33.7544
33.8183
33.8811
33.943
34.0038
34.0637
34.1226
34.1805
34.2374
34.2934
34.3484
34.4025
34.4556
34.5078
34.559
34.6093
34.6587
34.7071
34.7546
34.8012
34.8469
34.8916
34.9355
34.9785
35.0205
35.0617
35.1019
35.1413
35.1798
35.2174
35.2542
35.29
35.325
35.3591
35.3924
35.4247
35.4563
35.4869
35.5167
35.5457
35.5738
35.601
35.6274
35.653
35.6777
35.7016
35.7246
35.7468
35.7681
35.7887
35.8084
35.8272
35.8452
35.8624
35.8788
35.8944
35.9091
35.923
35.936
35.9483
35.9597
35.9703
35.9801
35.9891
35.9973
36.0046
36.0111
36.0168
36.0217
36.0258
36.0291
36.0315
36.0331
36.0339
-11.7859
-11.7803
-11.7692
-11.7524
-11.7302
-11.7023
-11.6689
-11.6299
-11.5854
-11.5353
-11.4797
-11.4185
-11.3518
-11.2795
-11.2017
-11.1183
-11.0295
-10.9351
-10.8352
-10.7298
-10.6189
-10.5025
-10.3806
-10.2533
-10.1206
-9.9825
-9.83899
-9.69014
-9.53596
-9.37651
-9.21183
-9.04197
-8.86699
-8.68696
-8.50194
-8.31204
-8.11733
-7.91791
-7.71389
-7.50537
-7.29249
-7.07536
-6.85411
-6.62887
-6.39976
-6.16692
-5.93048
-5.69055
-5.44727
-5.20076
-4.95112
-4.69848
-4.44295
-4.18462
-3.9236
-3.65999
-3.39389
-3.12541
-2.85463
-2.58165
-2.30658
-2.0295
-1.75051
-1.46971
-1.1872
-0.903064
-0.617405
-0.330317
-0.0418945
0.247769
0.538579
0.830443
1.12327
1.41696
1.71144
2.00661
2.30237
2.59866
2.89537
3.19242
3.48974
3.78723
4.08483
4.38243
4.67999
4.9774
5.2746
5.57153
5.86809
6.16423
6.45989
6.75498
7.04945
7.34323
7.63627
7.9285
8.21987
8.51032
8.7998
9.08825
9.37563
9.66189
9.94697
10.2308
10.5134
10.7948
11.0747
11.3533
11.6305
11.9062
12.1804
12.4532
12.7243
12.9939
13.2619
13.5283
13.7929
14.056
14.3173
14.5769
14.8347
15.0908
15.3451
15.5977
15.8484
16.0973
16.3444
16.5896
16.8329
17.0744
17.3141
17.5518
17.7877
18.0217
18.2537
18.4839
18.7122
18.9386
19.163
19.3856
19.6062
19.825
20.0418
20.2567
20.4697
20.6808
20.89
21.0973
21.3028
21.5063
21.7079
21.9077
22.1056
22.3017
22.4959
22.6882
22.8787
23.0674
23.2542
23.4392
23.6224
23.8039
23.9835
24.1613
24.3374
24.5116
24.6842
24.855
25.024
25.1914
25.357
25.5209
25.6831
25.8436
26.0025
26.1597
26.3152
26.4691
26.6214
26.772
26.9211
27.0685
27.2144
27.3586
27.5014
27.6425
27.7821
27.9202
28.0567
28.1918
28.3253
28.4574
28.588
28.7171
28.8447
28.9709
29.0957
29.219
29.341
29.4615
29.5806
29.6983
29.8147
29.9297
30.0434
30.1557
30.2666
30.3763
30.4846
30.5917
30.6974
30.8018
30.905
31.0069
31.1076
31.207
31.3051
31.4021
31.4978
31.5923
31.6856
31.7777
31.8686
31.9583
32.0469
32.1343
32.2206
32.3057
32.3896
32.4725
32.5542
32.6348
32.7143
32.7927
32.87
32.9462
33.0214
33.0954
33.1685
33.2404
33.3113
33.3812
33.45
33.5178
33.5845
33.6503
33.715
33.7787
33.8414
33.9032
33.9639
34.0236
34.0824
34.1402
34.1971
34.2529
34.3078
34.3618
34.4148
34.4669
34.518
34.5682
34.6174
34.6658
34.7132
34.7597
34.8053
34.85
34.8937
34.9366
34.9786
35.0197
35.0599
35.0992
35.1376
35.1751
35.2118
35.2476
35.2825
35.3165
35.3497
35.382
35.4135
35.4441
35.4738
35.5027
35.5308
35.558
35.5843
35.6098
35.6345
35.6583
35.6813
35.7034
35.7247
35.7452
35.7649
35.7837
35.8017
35.8188
35.8352
35.8507
35.8654
35.8793
35.8923
35.9045
35.9159
35.9265
35.9363
35.9453
35.9534
35.9607
35.9672
35.9729
35.9778
35.9819
35.9851
35.9876
35.9892
35.99
-11.7684
-11.7628
-11.7518
-11.7353
-11.7133
-11.6858
-11.6527
-11.6142
-11.5702
-11.5208
-11.4658
-11.4053
-11.3394
-11.268
-11.1911
-11.1088
-11.021
-10.9277
-10.829
-10.7249
-10.6153
-10.5003
-10.3798
-10.254
-10.1228
-9.98624
-9.8443
-9.69703
-9.54444
-9.38658
-9.22346
-9.05513
-8.88163
-8.70302
-8.51935
-8.33069
-8.13711
-7.93871
-7.73558
-7.52782
-7.31554
-7.09886
-6.8779
-6.65281
-6.42372
-6.19076
-5.95407
-5.71381
-5.47009
-5.22307
-4.97286
-4.7196
-4.46341
-4.20441
-3.9427
-3.67839
-3.4116
-3.14242
-2.87096
-2.59731
-2.32157
-2.04384
-1.76421
-1.48279
-1.19967
-0.914946
-0.628711
-0.341061
-0.0520926
0.238101
0.529426
0.82179
1.1151
1.40926
1.70419
1.9998
2.29599
2.59268
2.88978
3.18722
3.48489
3.78273
4.08066
4.37859
4.67644
4.97414
5.27162
5.5688
5.86561
6.16199
6.45786
6.75316
7.04782
7.34178
7.63498
7.92737
8.21888
8.50946
8.79905
9.08761
9.37508
9.66141
9.94657
10.2305
10.5132
10.7945
11.0745
11.3531
11.6303
11.906
12.1802
12.4529
12.724
12.9936
13.2615
13.5278
13.7925
14.0554
14.3167
14.5762
14.8339
15.0899
15.3441
15.5966
15.8472
16.0959
16.3429
16.588
16.8312
17.0726
17.312
17.5496
17.7854
18.0192
18.2511
18.4811
18.7092
18.9354
19.1597
19.382
19.6025
19.821
20.0377
20.2524
20.4652
20.6761
20.8851
21.0923
21.2975
21.5008
21.7023
21.9018
22.0995
22.2954
22.4894
22.6815
22.8718
23.0602
23.2469
23.4317
23.6147
23.7959
23.9753
24.1529
24.3287
24.5028
24.6751
24.8457
25.0145
25.1817
25.3471
25.5108
25.6728
25.8331
25.9917
26.1487
26.3041
26.4577
26.6098
26.7602
26.9091
27.0563
27.202
27.346
27.4885
27.6295
27.7689
27.9068
28.0432
28.178
28.3114
28.4432
28.5736
28.7025
28.83
28.956
29.0806
29.2037
29.3255
29.4458
29.5648
29.6823
29.7985
29.9133
30.0268
30.1389
30.2498
30.3592
30.4674
30.5743
30.6798
30.7841
30.8871
30.9889
31.0894
31.1886
31.2866
31.3834
31.479
31.5733
31.6665
31.7584
31.8492
31.9388
32.0272
32.1145
32.2006
32.2856
32.3694
32.4521
32.5337
32.6142
32.6936
32.7719
32.849
32.9251
33.0002
33.0741
33.147
33.2188
33.2896
33.3594
33.4281
33.4957
33.5624
33.628
33.6927
33.7563
33.8189
33.8805
33.9412
34.0008
34.0595
34.1172
34.1739
34.2297
34.2845
34.3384
34.3913
34.4433
34.4944
34.5445
34.5937
34.6419
34.6893
34.7357
34.7812
34.8258
34.8695
34.9123
34.9542
34.9952
35.0354
35.0746
35.1129
35.1504
35.187
35.2228
35.2576
35.2916
35.3247
35.357
35.3884
35.419
35.4487
35.4775
35.5055
35.5326
35.5589
35.5844
35.609
35.6328
35.6558
35.6779
35.6992
35.7196
35.7392
35.758
35.776
35.7931
35.8094
35.8249
35.8396
35.8534
35.8665
35.8787
35.8901
35.9006
35.9104
35.9193
35.9275
35.9348
35.9413
35.9469
35.9518
35.9559
35.9591
35.9616
35.9632
35.964
-11.7365
-11.7311
-11.7203
-11.704
-11.6824
-11.6553
-11.6229
-11.585
-11.5417
-11.4931
-11.439
-11.3796
-11.3147
-11.2445
-11.1688
-11.0878
-11.0013
-10.9095
-10.8123
-10.7098
-10.6018
-10.4885
-10.3698
-10.2457
-10.1164
-9.98162
-9.84156
-9.69618
-9.54551
-9.38956
-9.22834
-9.0619
-8.89026
-8.71345
-8.53153
-8.34455
-8.15256
-7.95564
-7.75386
-7.54732
-7.33612
-7.12036
-6.90016
-6.67565
-6.44698
-6.21427
-5.97769
-5.73737
-5.49347
-5.24615
-4.99554
-4.7418
-4.48506
-4.22546
-3.96312
-3.69816
-3.43069
-3.16083
-2.88869
-2.61437
-2.33797
-2.05959
-1.77934
-1.4973
-1.21358
-0.928264
-0.641461
-0.353261
-0.0637599
0.226949
0.518771
0.811615
1.10539
1.4
1.69535
1.99137
2.28795
2.58502
2.88248
3.18025
3.47825
3.7764
4.07461
4.37282
4.67093
4.96887
5.26658
5.56397
5.86097
6.15753
6.45356
6.749
7.0438
7.33788
7.63119
7.92366
8.21525
8.50589
8.79553
9.08413
9.37162
9.65797
9.94312
10.227
10.5097
10.791
11.0709
11.3495
11.6266
11.9022
12.1763
12.4489
12.72
12.9894
13.2572
13.5234
13.7879
14.0507
14.3118
14.5711
14.8287
15.0845
15.3385
15.5908
15.8412
16.0897
16.3365
16.5813
16.8243
17.0655
17.3047
17.5421
17.7776
18.0111
18.2428
18.4725
18.7004
18.9263
19.1504
19.3725
19.5926
19.8109
20.0273
20.2417
20.4543
20.6649
20.8736
21.0805
21.2854
21.4885
21.6896
21.8889
22.0863
22.2819
22.4756
22.6674
22.8574
23.0456
23.2319
23.4164
23.5991
23.78
23.9592
24.1365
24.312
24.4858
24.6579
24.8282
24.9967
25.1636
25.3287
25.4921
25.6538
25.8139
25.9722
26.1289
26.284
26.4374
26.5892
26.7394
26.8879
27.0349
27.1803
27.3241
27.4663
27.607
27.7462
27.8838
28.0199
28.1545
28.2876
28.4192
28.5493
28.678
28.8052
28.931
29.0553
29.1782
29.2997
29.4198
29.5386
29.6559
29.7719
29.8865
29.9997
30.1116
30.2222
30.3315
30.4394
30.5461
30.6514
30.7555
30.8583
30.9599
31.0601
31.1592
31.257
31.3536
31.449
31.5431
31.6361
31.7279
31.8184
31.9079
31.9961
32.0832
32.1691
32.2539
32.3376
32.4201
32.5015
32.5819
32.6611
32.7392
32.8162
32.8921
32.967
33.0408
33.1135
33.1852
33.2559
33.3255
33.394
33.4616
33.5281
33.5936
33.6581
33.7216
33.7841
33.8456
33.9061
33.9656
34.0242
34.0817
34.1384
34.194
34.2487
34.3025
34.3553
34.4072
34.4581
34.5081
34.5572
34.6054
34.6526
34.6989
34.7444
34.7889
34.8325
34.8752
34.917
34.9579
34.998
35.0371
35.0754
35.1128
35.1493
35.185
35.2198
35.2537
35.2868
35.319
35.3503
35.3808
35.4104
35.4392
35.4672
35.4943
35.5205
35.5459
35.5705
35.5942
35.6171
35.6392
35.6604
35.6808
35.7004
35.7192
35.7371
35.7542
35.7705
35.7859
35.8006
35.8144
35.8274
35.8396
35.8509
35.8615
35.8712
35.8801
35.8882
35.8955
35.902
35.9077
35.9126
35.9166
35.9199
35.9223
35.9239
35.9247
-11.7111
-11.7057
-11.695
-11.679
-11.6576
-11.6309
-11.5988
-11.5614
-11.5187
-11.4707
-11.4173
-11.3586
-11.2945
-11.2251
-11.1504
-11.0704
-10.985
-10.8944
-10.7984
-10.6971
-10.5905
-10.4785
-10.3613
-10.2388
-10.111
-9.97789
-9.83951
-9.69587
-9.54696
-9.39281
-9.23342
-9.06882
-8.89902
-8.72405
-8.54394
-8.35873
-8.16847
-7.97321
-7.773
-7.56793
-7.35806
-7.1435
-6.92435
-6.70073
-6.47275
-6.24057
-6.00432
-5.76417
-5.52026
-5.27276
-5.02184
-4.76766
-4.51037
-4.25012
-3.98707
-3.72134
-3.45307
-3.18239
-2.90941
-2.63424
-2.35699
-2.07778
-1.79669
-1.51384
-1.22932
-0.943227
-0.655661
-0.366717
-0.0764905
0.214925
0.507434
0.800946
1.09537
1.39061
1.68657
1.98318
2.28033
2.57795
2.87595
3.17424
3.47274
3.77136
4.07004
4.36868
4.66721
4.96556
5.26365
5.56141
5.85877
6.15565
6.452
6.74775
7.04282
7.33717
7.63073
7.92344
8.21524
8.50609
8.79592
9.08468
9.37233
9.65882
9.9441
10.2281
10.5109
10.7923
11.0723
11.3509
11.628
11.9037
12.1779
12.4505
12.7215
12.991
13.2587
13.5249
13.7893
14.0521
14.3131
14.5724
14.8299
15.0856
15.3396
15.5917
15.842
16.0904
16.337
16.5818
16.8247
17.0656
17.3047
17.542
17.7773
18.0107
18.2422
18.4717
18.6994
18.9252
19.149
19.3709
19.5909
19.809
20.0251
20.2394
20.4517
20.6621
20.8706
21.0772
21.282
21.4848
21.6857
21.8848
22.082
22.2773
22.4708
22.6624
22.8521
23.0401
23.2262
23.4104
23.5929
23.7736
23.9525
24.1296
24.3049
24.4784
24.6502
24.8203
24.9886
25.1552
25.3201
25.4832
25.6447
25.8045
25.9627
26.1191
26.2739
26.4271
26.5787
26.7286
26.8769
27.0237
27.1688
27.3124
27.4544
27.5949
27.7338
27.8712
28.0071
28.1415
28.2743
28.4057
28.5356
28.6641
28.7911
28.9166
29.0408
29.1635
29.2848
29.4047
29.5232
29.6403
29.7561
29.8705
29.9835
30.0952
30.2056
30.3147
30.4225
30.5289
30.6341
30.738
30.8406
30.942
31.0421
31.1409
31.2386
31.335
31.4302
31.5242
31.617
31.7086
31.799
31.8882
31.9763
32.0633
32.149
32.2337
32.3172
32.3996
32.4808
32.561
32.6401
32.718
32.7949
32.8707
32.9454
33.0191
33.0917
33.1633
33.2338
33.3032
33.3717
33.4391
33.5055
33.5709
33.6352
33.6986
33.761
33.8224
33.8828
33.9422
34.0006
34.0581
34.1146
34.1702
34.2248
34.2785
34.3312
34.3829
34.4338
34.4837
34.5327
34.5808
34.6279
34.6742
34.7195
34.7639
34.8075
34.8501
34.8918
34.9327
34.9726
35.0117
35.0499
35.0873
35.1237
35.1593
35.194
35.2279
35.2609
35.293
35.3243
35.3547
35.3843
35.4131
35.4409
35.468
35.4942
35.5195
35.5441
35.5678
35.5906
35.6126
35.6338
35.6542
35.6738
35.6925
35.7104
35.7274
35.7437
35.7591
35.7737
35.7875
35.8005
35.8126
35.824
35.8345
35.8442
35.8531
35.8612
35.8685
35.875
35.8807
35.8855
35.8896
35.8928
35.8952
35.8968
35.8976
-11.6749
-11.6697
-11.6591
-11.6434
-11.6223
-11.596
-11.5645
-11.5277
-11.4856
-11.4383
-11.3857
-11.3279
-11.2648
-11.1964
-11.1229
-11.044
-10.9599
-10.8706
-10.776
-10.6761
-10.571
-10.4606
-10.345
-10.2242
-10.0981
-9.96682
-9.83028
-9.68851
-9.54153
-9.38933
-9.23192
-9.06933
-8.90156
-8.72862
-8.55055
-8.36736
-8.1791
-7.98579
-7.78748
-7.58423
-7.3761
-7.16316
-6.94549
-6.7232
-6.4964
-6.26521
-6.02976
-5.79021
-5.5467
-5.29942
-5.04852
-4.79419
-4.5366
-4.27592