/*--------------------------------*- C++ -*----------------------------------*\
| =========                 |                                                 |
| \\      /  F ield         | OpenFOAM: The Open Source CFD Toolbox           |
|  \\    /   O peration     | Version:  2212                                  |
|   \\  /    A nd           | Website:  www.openfoam.com                      |
|    \\/     M anipulation  |                                                 |
\*---------------------------------------------------------------------------*/
FoamFile
{
    version     2.0;
    format      ascii;
    arch        "LSB;label=32;scalar=64";
    class       volScalarField;
    location    "110";
    object      p_rgh_0;
}
// * * * * * * * * * * * * * * * * * * * * * * * * * * * * * * * * * * * * * //

dimensions      [1 -1 -2 0 0 0 0];

internalField   nonuniform List<scalar> 
204800
(
-11.9347
-11.9287
-11.9161
-11.8975
-11.8725
-11.8414
-11.8041
-11.7605
-11.7108
-11.6549
-11.5929
-11.5249
-11.4508
-11.3709
-11.285
-11.1933
-11.0959
-10.9928
-10.8841
-10.7698
-10.65
-10.5248
-10.3943
-10.2585
-10.1175
-9.9714
-9.82028
-9.66421
-9.50326
-9.33752
-9.16705
-8.99195
-8.81228
-8.62812
-8.43955
-8.24665
-8.04949
-7.84815
-7.6427
-7.43323
-7.21982
-7.00254
-6.78147
-6.55671
-6.32832
-6.09641
-5.86104
-5.62232
-5.38032
-5.13513
-4.88685
-4.63556
-4.38136
-4.12434
-3.86459
-3.60221
-3.33728
-3.06991
-2.80018
-2.5282
-2.25406
-1.97786
-1.69968
-1.41964
-1.13782
-0.854318
-0.569234
-0.282662
0.00530273
0.294566
0.585034
0.876612
1.16921
1.46273
1.75709
2.05219
2.34795
2.64428
2.94109
3.2383
3.53581
3.83356
4.13145
4.42941
4.72736
5.02522
5.32292
5.62038
5.91754
6.21431
6.51063
6.80644
7.10166
7.39625
7.69012
7.98323
8.27551
8.56691
8.85737
9.14684
9.43528
9.72262
10.0088
10.2938
10.5776
10.8601
11.1413
11.4212
11.6996
11.9767
12.2522
12.5263
12.7989
13.0699
13.3393
13.6071
13.8732
14.1377
14.4005
14.6616
14.921
15.1786
15.4345
15.6886
15.9409
16.1913
16.44
16.6868
16.9318
17.1749
17.4162
17.6555
17.893
18.1286
18.3624
18.5942
18.8241
19.0521
19.2782
19.5024
19.7247
19.9451
20.1636
20.3801
20.5948
20.8075
21.0184
21.2273
21.4344
21.6396
21.8428
22.0442
22.2438
22.4414
22.6372
22.8312
23.0233
23.2135
23.4019
23.5885
23.7733
23.9563
24.1374
24.3168
24.4944
24.6702
24.8443
25.0165
25.1871
25.3559
25.523
25.6884
25.852
26.014
26.1743
26.3329
26.4899
26.6452
26.7988
26.9508
27.1012
27.25
27.3972
27.5428
27.6869
27.8293
27.9702
28.1096
28.2474
28.3837
28.5185
28.6518
28.7836
28.9139
29.0427
29.1701
29.296
29.4205
29.5436
29.6653
29.7855
29.9044
30.0218
30.1379
30.2526
30.366
30.478
30.5887
30.698
30.8061
30.9128
31.0182
31.1224
31.2252
31.3268
31.4272
31.5262
31.6241
31.7207
31.8161
31.9102
32.0032
32.095
32.1855
32.2749
32.3631
32.4502
32.5361
32.6208
32.7044
32.7869
32.8682
32.9484
33.0275
33.1055
33.1825
33.2583
33.333
33.4067
33.4793
33.5508
33.6213
33.6907
33.7591
33.8264
33.8928
33.958
34.0223
34.0856
34.1479
34.2091
34.2694
34.3287
34.387
34.4443
34.5006
34.556
34.6104
34.6639
34.7164
34.7679
34.8185
34.8682
34.9169
34.9647
35.0116
35.0576
35.1026
35.1467
35.1899
35.2322
35.2737
35.3142
35.3538
35.3925
35.4303
35.4673
35.5033
35.5385
35.5728
35.6063
35.6388
35.6705
35.7014
35.7313
35.7604
35.7887
35.8161
35.8426
35.8683
35.8932
35.9172
35.9403
35.9626
35.9841
36.0047
36.0245
36.0435
36.0616
36.0789
36.0953
36.111
36.1258
36.1397
36.1529
36.1652
36.1767
36.1874
36.1972
36.2062
36.2144
36.2218
36.2283
36.2341
36.239
36.2431
36.2464
36.2488
36.2505
36.2513
-11.8809
-11.8749
-11.8627
-11.8445
-11.8202
-11.7899
-11.7535
-11.7111
-11.6626
-11.6082
-11.5478
-11.4814
-11.4092
-11.331
-11.2471
-11.1573
-11.0617
-10.9605
-10.8536
-10.7411
-10.6231
-10.4996
-10.3706
-10.2363
-10.0967
-9.95194
-9.80201
-9.64702
-9.48706
-9.32221
-9.15255
-8.97816
-8.79914
-8.61556
-8.42751
-8.23508
-8.03835
-7.83741
-7.63234
-7.42322
-7.21015
-6.99321
-6.77248
-6.54804
-6.31999
-6.08841
-5.85338
-5.615
-5.37335
-5.12852
-4.8806
-4.62969
-4.37586
-4.11923
-3.85987
-3.59788
-3.33336
-3.0664
-2.79709
-2.52553
-2.25182
-1.97605
-1.69832
-1.41872
-1.13735
-0.854304
-0.56968
-0.283574
0.00392161
0.292711
0.582701
0.873797
1.16591
1.45894
1.75281
2.04741
2.34267
2.6385
2.9348
3.2315
3.52851
3.82574
4.12312
4.42057
4.718
5.01534
5.31252
5.60946
5.90609
6.20234
6.49813
6.79342
7.08812
7.38217
7.67552
7.9681
8.25985
8.55073
8.84066
9.12961
9.41751
9.70433
9.99001
10.2745
10.5578
10.8398
11.1204
11.3998
11.6777
11.9542
12.2293
12.5028
12.7749
13.0454
13.3143
13.5815
13.8472
14.1112
14.3735
14.6341
14.893
15.1501
15.4055
15.6591
15.9109
16.1609
16.4091
16.6554
16.8999
17.1426
17.3833
17.6223
17.8593
18.0944
18.3277
18.5591
18.7885
19.0161
19.2418
19.4655
19.6874
19.9073
20.1254
20.3415
20.5558
20.7681
20.9785
21.1871
21.3937
21.5985
21.8013
22.0023
22.2015
22.3987
22.5941
22.7877
22.9794
23.1693
23.3573
23.5435
23.7279
23.9105
24.0913
24.2703
24.4476
24.623
24.7967
24.9687
25.1389
25.3074
25.4741
25.6391
25.8025
25.9641
26.1241
26.2824
26.439
26.594
26.7473
26.8991
27.0492
27.1976
27.3445
27.4898
27.6336
27.7757
27.9164
28.0554
28.193
28.329
28.4635
28.5965
28.7281
28.8581
28.9867
29.1138
29.2395
29.3637
29.4865
29.6079
29.7279
29.8465
29.9638
30.0796
30.1941
30.3072
30.419
30.5295
30.6386
30.7464
30.8529
30.9581
31.0621
31.1647
31.2661
31.3662
31.4651
31.5627
31.6592
31.7543
31.8483
31.9411
32.0326
32.123
32.2122
32.3003
32.3871
32.4729
32.5574
32.6408
32.7231
32.8043
32.8844
32.9633
33.0412
33.1179
33.1936
33.2682
33.3417
33.4141
33.4855
33.5558
33.6251
33.6934
33.7606
33.8268
33.8919
33.9561
34.0192
34.0813
34.1425
34.2026
34.2618
34.3199
34.3771
34.4334
34.4886
34.5429
34.5963
34.6487
34.7001
34.7506
34.8002
34.8488
34.8965
34.9433
34.9892
35.0341
35.0781
35.1213
35.1635
35.2048
35.2452
35.2848
35.3234
35.3612
35.398
35.434
35.4691
35.5034
35.5367
35.5692
35.6009
35.6316
35.6616
35.6906
35.7188
35.7461
35.7726
35.7983
35.8231
35.847
35.8701
35.8924
35.9138
35.9344
35.9541
35.9731
35.9911
36.0084
36.0248
36.0404
36.0552
36.0691
36.0822
36.0945
36.106
36.1166
36.1265
36.1355
36.1436
36.151
36.1575
36.1633
36.1682
36.1723
36.1755
36.178
36.1796
36.1804
-11.8824
-11.8764
-11.8643
-11.8462
-11.822
-11.7918
-11.7555
-11.7133
-11.6651
-11.6109
-11.5507
-11.4846
-11.4126
-11.3348
-11.2511
-11.1616
-11.0664
-10.9655
-10.8589
-10.7467
-10.629
-10.5057
-10.3771
-10.243
-10.1036
-9.95903
-9.80926
-9.65441
-9.49454
-9.32976
-9.16013
-8.98575
-8.8067
-8.62306
-8.43494
-8.2424
-8.04555
-7.84447
-7.63925
-7.42997
-7.21673
-6.99961
-6.77869
-6.55407
-6.32584
-6.09407
-5.85886
-5.6203
-5.37848
-5.13348
-4.88539
-4.63431
-4.38033
-4.12354
-3.86403
-3.60189
-3.33723
-3.07013
-2.80069
-2.529
-2.25517
-1.97927
-1.70143
-1.42171
-1.14024
-0.857088
-0.572365
-0.286163
0.00142392
0.290301
0.580374
0.87155
1.16374
1.45684
1.75077
2.04544
2.34076
2.63664
2.933
3.22975
3.5268
3.82407
4.12149
4.41896
4.71642
5.01379
5.31099
5.60795
5.90459
6.20085
6.49666
6.79194
7.08664
7.3807
7.67404
7.96661
8.25836
8.54921
8.83913
9.12806
9.41594
9.70273
9.98838
10.2728
10.5561
10.838
11.1187
11.398
11.6759
11.9523
12.2273
12.5009
12.7728
13.0433
13.3121
13.5793
13.8449
14.1089
14.3711
14.6317
14.8905
15.1475
15.4029
15.6564
15.9081
16.158
16.4061
16.6524
16.8968
17.1394
17.3801
17.619
17.8559
18.091
18.3242
18.5555
18.7849
19.0124
19.2379
19.4616
19.6834
19.9033
20.1212
20.3373
20.5514
20.7637
20.974
21.1825
21.389
21.5937
21.7965
21.9974
22.1965
22.3936
22.589
22.7824
22.9741
23.1639
23.3518
23.5379
23.7223
23.9048
24.0855
24.2644
24.4416
24.617
24.7906
24.9624
25.1326
25.301
25.4676
25.6326
25.7958
25.9574
26.1173
26.2755
26.4321
26.587
26.7402
26.8919
27.0419
27.1903
27.3371
27.4824
27.626
27.7681
27.9087
28.0477
28.1851
28.3211
28.4555
28.5885
28.7199
28.8499
28.9784
29.1055
29.2311
29.3553
29.478
29.5993
29.7193
29.8378
29.955
30.0708
30.1852
30.2982
30.41
30.5204
30.6294
30.7372
30.8436
30.9488
31.0527
31.1553
31.2566
31.3567
31.4555
31.5531
31.6494
31.7446
31.8385
31.9312
32.0227
32.113
32.2022
32.2902
32.377
32.4627
32.5472
32.6306
32.7128
32.7939
32.874
32.9529
33.0307
33.1074
33.183
33.2575
33.331
33.4034
33.4747
33.545
33.6143
33.6825
33.7497
33.8158
33.8809
33.945
34.0081
34.0702
34.1313
34.1914
34.2506
34.3087
34.3659
34.4221
34.4773
34.5316
34.5849
34.6372
34.6887
34.7391
34.7887
34.8373
34.885
34.9317
34.9775
35.0225
35.0665
35.1096
35.1518
35.1931
35.2335
35.273
35.3116
35.3493
35.3862
35.4222
35.4572
35.4915
35.5248
35.5573
35.5889
35.6197
35.6495
35.6786
35.7068
35.7341
35.7606
35.7862
35.811
35.8349
35.858
35.8802
35.9017
35.9222
35.942
35.9609
35.979
35.9962
36.0126
36.0282
36.043
36.0569
36.07
36.0823
36.0937
36.1044
36.1142
36.1232
36.1314
36.1387
36.1453
36.151
36.1559
36.16
36.1632
36.1657
36.1673
36.1681
-11.8462
-11.8403
-11.8285
-11.8108
-11.7871
-11.7576
-11.7222
-11.6809
-11.6337
-11.5806
-11.5218
-11.4571
-11.3865
-11.3102
-11.2281
-11.1402
-11.0467
-10.9474
-10.8424
-10.7318
-10.6157
-10.4939
-10.3667
-10.2341
-10.096
-9.95267
-9.80406
-9.65026
-9.49135
-9.32742
-9.15856
-8.98483
-8.80635
-8.6232
-8.43547
-8.24327
-8.04668
-7.8458
-7.64074
-7.43158
-7.21842
-7.00135
-6.78048
-6.55589
-6.32767
-6.09592
-5.86073
-5.62218
-5.38038
-5.13541
-4.88735
-4.63632
-4.38239
-4.12565
-3.86621
-3.60416
-3.33958
-3.07258
-2.80324
-2.53166
-2.25795
-1.98219
-1.70448
-1.42491
-1.14359
-0.860604
-0.576051
-0.290027
-0.00262506
0.286059
0.575932
0.8669
1.15887
1.45176
1.74546
2.0399
2.33497
2.63061
2.92671
3.22319
3.51998
3.81698
4.11412
4.41131
4.70849
5.00556
5.30246
5.59911
5.89545
6.1914
6.48688
6.78185
7.07622
7.36995
7.66295
7.95519
8.24659
8.53711
8.82668
9.11525
9.40278
9.68922
9.97451
10.2586
10.5415
10.8231
11.1033
11.3823
11.6598
11.9359
12.2105
12.4837
12.7553
13.0253
13.2938
13.5606
13.8258
14.0894
14.3513
14.6114
14.8698
15.1265
15.3815
15.6346
15.886
16.1355
16.3832
16.6291
16.8732
17.1154
17.3557
17.5941
17.8307
18.0654
18.2982
18.5291
18.7582
18.9853
19.2105
19.4338
19.6552
19.8747
20.0923
20.308
20.5218
20.7337
20.9437
21.1518
21.358
21.5623
21.7647
21.9653
22.164
22.3608
22.5558
22.749
22.9402
23.1297
23.3173
23.5031
23.6871
23.8693
24.0497
24.2283
24.4051
24.5802
24.7535
24.9251
25.0949
25.263
25.4293
25.594
25.7569
25.9182
26.0778
26.2357
26.392
26.5466
26.6996
26.8509
27.0007
27.1488
27.2954
27.4403
27.5837
27.7255
27.8658
28.0046
28.1418
28.2775
28.4117
28.5444
28.6756
28.8053
28.9336
29.0604
29.1858
29.3097
29.4322
29.5533
29.673
29.7913
29.9083
30.0238
30.138
30.2509
30.3624
30.4726
30.5814
30.689
30.7952
30.9002
31.0039
31.1063
31.2074
31.3073
31.4059
31.5033
31.5995
31.6944
31.7882
31.8807
31.972
32.0622
32.1512
32.239
32.3256
32.4111
32.4955
32.5787
32.6608
32.7418
32.8216
32.9004
32.978
33.0546
33.1301
33.2045
33.2778
33.3501
33.4213
33.4914
33.5605
33.6286
33.6956
33.7617
33.8267
33.8906
33.9536
34.0156
34.0766
34.1366
34.1956
34.2536
34.3107
34.3667
34.4219
34.476
34.5292
34.5815
34.6328
34.6832
34.7326
34.7812
34.8287
34.8754
34.9212
34.966
35.0099
35.0529
35.0951
35.1363
35.1766
35.216
35.2546
35.2922
35.329
35.3649
35.3999
35.4341
35.4674
35.4998
35.5313
35.562
35.5919
35.6208
35.649
35.6762
35.7027
35.7282
35.753
35.7769
35.7999
35.8221
35.8435
35.864
35.8837
35.9026
35.9206
35.9378
35.9542
35.9698
35.9845
35.9984
36.0115
36.0237
36.0352
36.0458
36.0556
36.0646
36.0727
36.0801
36.0866
36.0923
36.0972
36.1013
36.1045
36.107
36.1086
36.1094
-11.8437
-11.8379
-11.8261
-11.8086
-11.7851
-11.7558
-11.7207
-11.6797
-11.6329
-11.5803
-11.5219
-11.4577
-11.3878
-11.312
-11.2305
-11.1433
-11.0504
-10.9519
-10.8477
-10.7378
-10.6224
-10.5015
-10.375
-10.2431
-10.1058
-9.96311
-9.81515
-9.66196
-9.50361
-9.34018
-9.17174
-8.99838
-8.82018
-8.63724
-8.44966
-8.25752
-8.06093
-7.85998
-7.65479
-7.44546
-7.23208
-7.01475
-6.79358
-6.56868
-6.34012
-6.10802
-5.87247
-5.63356
-5.39139
-5.14606
-4.89765
-4.64625
-4.39197
-4.1349
-3.87512
-3.61274
-3.34784
-3.08053
-2.81089
-2.53902
-2.26502
-1.98897
-1.71099
-1.43116
-1.14959
-0.866353
-0.581562
-0.295306
-0.0076815
0.281218
0.571298
0.862465
1.15463
1.4477
1.74158
2.03618
2.33142
2.6272
2.92345
3.22007
3.51699
3.81411
4.11136
4.40866
4.70594
5.0031
5.30009
5.59682
5.89323
6.18924
6.48478
6.7798
7.07422
7.36798
7.66102
7.95328
8.2447
8.53523
8.82481
9.11338
9.40091
9.68733
9.97261
10.2567
10.5395
10.8211
11.1013
11.3802
11.6577
11.9337
12.2083
12.4814
12.7529
13.0229
13.2913
13.5581
13.8232
14.0867
14.3485
14.6086
14.8669
15.1235
15.3783
15.6314
15.8826
16.132
16.3797
16.6254
16.8694
17.1115
17.3517
17.59
17.8265
18.0611
18.2937
18.5245
18.7534
18.9804
19.2055
19.4287
19.6499
19.8693
20.0868
20.3023
20.516
20.7277
20.9376
21.1455
21.3516
21.5558
21.7581
21.9585
22.1571
22.3538
22.5486
22.7416
22.9328
23.1221
23.3096
23.4952
23.6791
23.8611
24.0414
24.2199
24.3966
24.5715
24.7446
24.9161
25.0857
25.2537
25.4199
25.5844
25.7473
25.9084
26.0679
26.2257
26.3818
26.5363
26.6891
26.8403
26.99
27.138
27.2844
27.4292
27.5725
27.7142
27.8543
27.993
28.1301
28.2656
28.3997
28.5323
28.6634
28.793
28.9211
29.0478
29.1731
29.2969
29.4193
29.5403
29.6599
29.7781
29.8949
30.0104
30.1245
30.2372
30.3486
30.4587
30.5675
30.6749
30.781
30.8859
30.9895
31.0918
31.1928
31.2926
31.3911
31.4884
31.5845
31.6794
31.773
31.8655
31.9567
32.0468
32.1357
32.2234
32.31
32.3954
32.4797
32.5628
32.6448
32.7257
32.8055
32.8841
32.9617
33.0382
33.1136
33.1879
33.2612
33.3334
33.4045
33.4746
33.5436
33.6116
33.6786
33.7446
33.8095
33.8734
33.9363
33.9983
34.0592
34.1191
34.1781
34.236
34.293
34.3491
34.4041
34.4582
34.5114
34.5636
34.6149
34.6652
34.7146
34.7631
34.8106
34.8572
34.9029
34.9477
34.9916
35.0346
35.0766
35.1178
35.1581
35.1975
35.236
35.2736
35.3104
35.3462
35.3812
35.4153
35.4486
35.481
35.5125
35.5432
35.573
35.6019
35.63
35.6572
35.6836
35.7092
35.7339
35.7578
35.7808
35.803
35.8243
35.8448
35.8645
35.8834
35.9014
35.9186
35.935
35.9505
35.9652
35.9791
35.9922
36.0044
36.0158
36.0264
36.0362
36.0452
36.0534
36.0607
36.0672
36.0729
36.0778
36.0819
36.0851
36.0876
36.0892
36.09
-11.814
-11.8083
-11.7968
-11.7796
-11.7566
-11.7279
-11.6935
-11.6533
-11.6075
-11.5559
-11.4986
-11.4357
-11.367
-11.2927
-11.2126
-11.127
-11.0356
-10.9387
-10.8361
-10.7279
-10.6142
-10.4949
-10.37
-10.2397
-10.104
-9.96286
-9.81636
-9.66455
-9.50751
-9.34529
-9.17796
-9.00561
-8.82831
-8.64615
-8.45923
-8.26764
-8.07149
-7.87088
-7.66593
-7.45673
-7.24342
-7.02608
-6.80485
-6.57981
-6.3511
-6.1188
-5.88303
-5.64389
-5.40147
-5.15589
-4.90722
-4.65558
-4.40106
-4.14375
-3.88375
-3.62116
-3.35605
-3.08855
-2.81872
-2.54668
-2.27252
-1.99633
-1.71822
-1.43826
-1.15657
-0.873234
-0.58835
-0.302013
-0.0143175
0.274641
0.564771
0.855977
1.14817
1.44125
1.73514
2.02974
2.32497
2.62073
2.91694
3.21352
3.51039
3.80745
4.10463
4.40185
4.69903
4.9961
5.29298
5.5896
5.88588
6.18176
6.47717
6.77204
7.0663
7.3599
7.65277
7.94485
8.23609
8.52642
8.8158
9.10418
9.39149
9.6777
9.96275
10.2466
10.5292
10.8105
11.0905
11.3692
11.6464
11.9222
12.1965
12.4693
12.7406
13.0103
13.2784
13.5449
13.8097
14.0729
14.3344
14.5942
14.8522
15.1085
15.363
15.6158
15.8667
16.1159
16.3632
16.6086
16.8523
17.094
17.3339
17.5719
17.8081
18.0423
18.2747
18.5052
18.7338
18.9604
19.1852
19.408
19.629
19.848
20.0652
20.2804
20.4937
20.7052
20.9147
21.1224
21.3281
21.532
21.734
21.9341
22.1323
22.3287
22.5232
22.7159
22.9068
23.0958
23.2829
23.4683
23.6519
23.8336
24.0136
24.1917
24.3681
24.5427
24.7156
24.8867
25.0561
25.2238
25.3897
25.554
25.7165
25.8774
26.0365
26.194
26.3499
26.5041
26.6567
26.8077
26.957
27.1047
27.2509
27.3955
27.5385
27.6799
27.8198
27.9582
28.095
28.2304
28.3642
28.4965
28.6274
28.7567
28.8846
29.0111
29.1361
29.2597
29.3819
29.5027
29.622
29.74
29.8566
29.9719
30.0858
30.1983
30.3095
30.4194
30.5279
30.6351
30.7411
30.8457
30.9491
31.0512
31.1521
31.2517
31.35
31.4471
31.543
31.6377
31.7312
31.8234
31.9145
32.0044
32.0931
32.1807
32.2671
32.3524
32.4365
32.5195
32.6013
32.682
32.7617
32.8402
32.9176
32.9939
33.0692
33.1434
33.2165
33.2886
33.3596
33.4295
33.4984
33.5663
33.6331
33.699
33.7638
33.8276
33.8904
33.9522
34.013
34.0728
34.1316
34.1895
34.2464
34.3023
34.3573
34.4113
34.4643
34.5164
34.5676
34.6178
34.6671
34.7155
34.7629
34.8095
34.8551
34.8998
34.9436
34.9865
35.0285
35.0696
35.1098
35.1491
35.1875
35.2251
35.2617
35.2975
35.3325
35.3665
35.3997
35.432
35.4635
35.4941
35.5238
35.5527
35.5808
35.608
35.6343
35.6598
35.6845
35.7083
35.7313
35.7534
35.7747
35.7952
35.8148
35.8337
35.8517
35.8688
35.8851
35.9007
35.9153
35.9292
35.9422
35.9545
35.9659
35.9765
35.9862
35.9952
36.0033
36.0106
36.0171
36.0228
36.0277
36.0318
36.035
36.0375
36.0391
36.0399
-11.8044
-11.7987
-11.7873
-11.7703
-11.7476
-11.7192
-11.6852
-11.6455
-11.6001
-11.5491
-11.4924
-11.4301
-11.3622
-11.2886
-11.2094
-11.1247
-11.0343
-10.9383
-10.8368
-10.7297
-10.6171
-10.499
-10.3754
-10.2463
-10.1118
-9.97188
-9.8266
-9.67599
-9.52009
-9.35898
-9.19269
-9.0213
-8.84488
-8.66351
-8.47727
-8.28625
-8.09056
-7.8903
-7.68557
-7.4765
-7.26319
-7.04577
-6.82436
-6.59907
-6.37003
-6.13735
-5.90114
-5.66153
-5.41862
-5.17251
-4.92332
-4.67114
-4.41609
-4.15824
-3.89771
-3.63459
-3.36898
-3.10097
-2.83065
-2.55813
-2.2835
-2.00685
-1.72829
-1.4479
-1.16578
-0.882033
-0.596748
-0.310022
-0.0219502
0.267374
0.557857
0.849405
1.14193
1.43533
1.72952
2.02442
2.31993
2.61596
2.91244
3.20927
3.50637
3.80366
4.10106
4.39848
4.69586
4.99311
5.29016
5.58694
5.88337
6.17939
6.47493
6.76992
7.06429
7.35799
7.65095
7.94312
8.23443
8.52483
8.81426
9.10268
9.39003
9.67627
9.96134
10.2452
10.5278
10.8091
11.0891
11.3677
11.6449
11.9207
12.195
12.4677
12.7389
13.0086
13.2766
13.5431
13.8078
14.0709
14.3323
14.592
14.85
15.1062
15.3606
15.6132
15.864
16.113
16.3602
16.6056
16.8491
17.0907
17.3304
17.5683
17.8043
18.0384
18.2707
18.501
18.7294
18.9559
19.1805
19.4032
19.624
19.8429
20.0598
20.2749
20.4881
20.6993
20.9087
21.1162
21.3217
21.5254
21.7273
21.9272
22.1253
22.3215
22.5158
22.7083
22.899
23.0878
23.2748
23.46
23.6433
23.8249
24.0047
24.1827
24.3589
24.5333
24.706
24.877
25.0462
25.2137
25.3794
25.5435
25.7058
25.8665
26.0255
26.1829
26.3385
26.4926
26.645
26.7958
26.9449
27.0925
27.2385
27.3829
27.5257
27.667
27.8068
27.945
28.0816
28.2168
28.3505
28.4826
28.6133
28.7425
28.8703
28.9966
29.1215
29.2449
29.3669
29.4876
29.6068
29.7246
29.8411
29.9562
30.0699
30.1823
30.2934
30.4031
30.5115
30.6186
30.7244
30.8289
30.9322
31.0342
31.1349
31.2343
31.3326
31.4295
31.5253
31.6199
31.7132
31.8054
31.8963
31.9861
32.0747
32.1622
32.2485
32.3336
32.4176
32.5005
32.5822
32.6628
32.7424
32.8208
32.8981
32.9743
33.0495
33.1236
33.1966
33.2686
33.3395
33.4093
33.4781
33.5459
33.6127
33.6784
33.7431
33.8069
33.8696
33.9313
33.992
34.0517
34.1105
34.1683
34.2251
34.2809
34.3358
34.3898
34.4428
34.4948
34.5459
34.5961
34.6453
34.6936
34.741
34.7875
34.833
34.8777
34.9214
34.9642
35.0062
35.0472
35.0874
35.1266
35.165
35.2025
35.2391
35.2749
35.3098
35.3438
35.3769
35.4092
35.4406
35.4712
35.5009
35.5297
35.5577
35.5849
35.6112
35.6367
35.6613
35.6851
35.708
35.7301
35.7514
35.7719
35.7915
35.8103
35.8282
35.8454
35.8617
35.8772
35.8918
35.9057
35.9187
35.9309
35.9423
35.9529
35.9626
35.9716
35.9797
35.987
35.9935
35.9992
36.0041
36.0081
36.0114
36.0138
36.0154
36.0162
-11.7751
-11.7695
-11.7584
-11.7416
-11.7194
-11.6915
-11.6581
-11.6191
-11.5746
-11.5245
-11.4688
-11.4077
-11.3409
-11.2686
-11.1908
-11.1075
-11.0186
-10.9242
-10.8243
-10.7188
-10.6079
-10.4915
-10.3697
-10.2424
-10.1097
-9.97152
-9.828
-9.67913
-9.52494
-9.36548
-9.20079
-9.03091
-8.85592
-8.67588
-8.49086
-8.30094
-8.10621
-7.90679
-7.70275
-7.49423
-7.28134
-7.06421
-6.84295
-6.6177
-6.38858
-6.15574
-5.91929
-5.67937
-5.43609
-5.18957
-4.93994
-4.68731
-4.43177
-4.17345
-3.91244
-3.64885
-3.38277
-3.1143
-2.84354
-2.57058
-2.29553
-2.01848
-1.73952
-1.45875
-1.17627
-0.89217
-0.606549
-0.319501
-0.0311208
0.258497
0.54926
0.841073
1.13385
1.42749
1.7219
2.01701
2.31272
2.60893
2.90558
3.20256
3.49981
3.79723
4.09474
4.39227
4.68974
4.98707
5.28419
5.58102
5.87749
6.17354
6.4691
6.76409
7.05846
7.35215
7.64508
7.93721
8.22847
8.51881
8.80818
9.09652
9.38378
9.66992
9.95489
10.2386
10.5211
10.8023
11.0822
11.3606
11.6377
11.9133
12.1874
12.46
12.731
13.0004
13.2683
13.5345
13.7991
14.062
14.3232
14.5826
14.8403
15.0963
15.3505
15.6029
15.8534
16.1022
16.3491
16.5942
16.8374
17.0788
17.3183
17.5559
17.7916
18.0255
18.2574
18.4874
18.7156
18.9418
19.1661
19.3885
19.609
19.8276
20.0443
20.2591
20.4719
20.6829
20.892
21.0991
21.3044
21.5078
21.7093
21.909
22.1067
22.3027
22.4967
22.6889
22.8793
23.0678
23.2545
23.4394
23.6225
23.8037
23.9832
24.1609
24.3368
24.511
24.6834
24.8541
25.023
25.1902
25.3557
25.5195
25.6815
25.8419
26.0007
26.1577
26.3131
26.4669
26.619
26.7696
26.9185
27.0658
27.2115
27.3556
27.4982
27.6393
27.7787
27.9167
28.0531
28.188
28.3214
28.4534
28.5838
28.7128
28.8403
28.9664
29.091
29.2142
29.336
29.4564
29.5754
29.693
29.8093
29.9241
30.0377
30.1498
30.2607
30.3702
30.4784
30.5853
30.6909
30.7952
30.8983
31
31.1006
31.1998
31.2979
31.3947
31.4903
31.5846
31.6778
31.7698
31.8605
31.9502
32.0386
32.1259
32.212
32.297
32.3808
32.4635
32.5451
32.6256
32.7049
32.7832
32.8604
32.9364
33.0114
33.0854
33.1583
33.2301
33.3008
33.3706
33.4392
33.5069
33.5735
33.6391
33.7037
33.7673
33.8299
33.8915
33.9521
34.0117
34.0704
34.128
34.1847
34.2405
34.2953
34.3491
34.402
34.4539
34.5049
34.555
34.6041
34.6523
34.6996
34.746
34.7914
34.836
34.8797
34.9224
34.9643
35.0052
35.0453
35.0845
35.1228
35.1602
35.1968
35.2324
35.2672
35.3012
35.3343
35.3665
35.3978
35.4283
35.458
35.4868
35.5147
35.5418
35.5681
35.5935
35.6181
35.6418
35.6647
35.6868
35.7081
35.7285
35.748
35.7668
35.7847
35.8018
35.8181
35.8336
35.8482
35.862
35.875
35.8872
35.8986
35.9091
35.9189
35.9278
35.9359
35.9432
35.9497
35.9553
35.9602
35.9643
35.9675
35.9699
35.9715
35.9724
-11.7575
-11.752
-11.741
-11.7245
-11.7025
-11.6749
-11.6419
-11.6034
-11.5594
-11.5099
-11.4549
-11.3945
-11.3285
-11.2571
-11.1802
-11.0979
-11.0101
-10.9168
-10.8181
-10.7139
-10.6043
-10.4893
-10.3689
-10.243
-10.1118
-9.97523
-9.83328
-9.686
-9.5334
-9.37553
-9.2124
-9.04406
-8.87055
-8.69192
-8.50824
-8.31958
-8.12599
-7.92759
-7.72444
-7.51667
-7.30438
-7.0877
-6.86674
-6.64164
-6.41254
-6.17958
-5.94289
-5.70262
-5.45891
-5.21189
-4.96168
-4.70843
-4.45224
-4.19325
-3.93155
-3.66726
-3.40048
-3.13131
-2.85987
-2.58624
-2.31052
-2.03282
-1.75322
-1.47183
-1.18874
-0.90405
-0.617852
-0.330242
-0.041316
0.248833
0.54011
0.832424
1.12568
1.41979
1.71466
2.01021
2.30633
2.60296
2.9
3.19736
3.49496
3.79273
4.09058
4.38842
4.6862
4.98381
5.28121
5.5783
5.87502
6.1713
6.46708
6.76228
7.05684
7.3507
7.6438
7.93608
8.22748
8.51795
8.80743
9.09588
9.38324
9.66945
9.95449
10.2383
10.5208
10.8021
11.0819
11.3604
11.6375
11.9131
12.1871
12.4597
12.7307
13.0001
13.268
13.5341
13.7986
14.0614
14.3225
14.5819
14.8395
15.0954
15.3495
15.6017
15.8522
16.1009
16.3476
16.5926
16.8357
17.0769
17.3163
17.5537
17.7893
18.023
18.2547
18.4846
18.7126
18.9386
19.1628
19.385
19.6053
19.8237
20.0402
20.2548
20.4674
20.6782
20.8871
21.0941
21.2991
21.5023
21.7037
21.9031
22.1007
22.2964
22.4902
22.6822
22.8723
23.0607
23.2472
23.4318
23.6147
23.7958
23.975
24.1525
24.3282
24.5022
24.6744
24.8448
25.0135
25.1805
25.3458
25.5093
25.6712
25.8314
25.9899
26.1468
26.302
26.4555
26.6075
26.7578
26.9065
27.0536
27.1991
27.343
27.4854
27.6263
27.7655
27.9033
28.0395
28.1742
28.3075
28.4392
28.5694
28.6982
28.8256
28.9515
29.0759
29.1989
29.3205
29.4408
29.5596
29.677
29.7931
29.9078
30.0211
30.1331
30.2438
30.3531
30.4612
30.5679
30.6734
30.7775
30.8804
30.982
31.0824
31.1815
31.2794
31.376
31.4715
31.5657
31.6587
31.7505
31.8412
31.9306
32.0189
32.1061
32.192
32.2769
32.3606
32.4432
32.5246
32.605
32.6842
32.7623
32.8394
32.9153
32.9902
33.0641
33.1368
33.2085
33.2792
33.3488
33.4173
33.4849
33.5514
33.6169
33.6814
33.7449
33.8074
33.8689
33.9294
33.9889
34.0475
34.105
34.1616
34.2173
34.272
34.3257
34.3785
34.4304
34.4813
34.5313
34.5803
34.6285
34.6757
34.722
34.7674
34.8119
34.8554
34.8981
34.9399
34.9808
35.0208
35.0599
35.0982
35.1355
35.172
35.2077
35.2424
35.2763
35.3093
35.3415
35.3728
35.4032
35.4328
35.4616
35.4895
35.5166
35.5428
35.5681
35.5927
35.6164
35.6393
35.6613
35.6825
35.7029
35.7224
35.7411
35.759
35.7761
35.7924
35.8078
35.8224
35.8362
35.8492
35.8614
35.8727
35.8832
35.893
35.9019
35.91
35.9172
35.9237
35.9294
35.9342
35.9383
35.9415
35.9439
35.9456
35.9464
-11.7257
-11.7202
-11.7094
-11.6932
-11.6715
-11.6445
-11.612
-11.5741
-11.5309
-11.4822
-11.4281
-11.3687
-11.3038
-11.2336
-11.1579
-11.0769
-10.9904
-10.8986
-10.8014
-10.6988
-10.5908
-10.4775
-10.3588
-10.2347
-10.1053
-9.97059
-9.83052
-9.68513
-9.53445
-9.37849
-9.21726
-9.05081
-8.87915
-8.70234
-8.52041
-8.33342
-8.14143
-7.9445
-7.74272
-7.53617
-7.32496
-7.10919
-6.88899
-6.66448
-6.4358
-6.20309
-5.9665
-5.72619
-5.48229
-5.23497
-4.98437
-4.73063
-4.4739
-4.2143
-3.95197
-3.68702
-3.41957
-3.14973
-2.8776
-2.6033
-2.32693
-2.04857
-1.76834
-1.48633
-1.20264
-0.917366
-0.6306
-0.34244
-0.0529808
0.237683
0.529459
0.822252
1.11597
1.41053
1.70583
2.00178
2.2983
2.5953
2.8927
3.1904
3.48833
3.7864
4.08454
4.38266
4.68069
4.97855
5.27617
5.57347
5.87038
6.16684
6.46278
6.75813
7.05283
7.34681
7.64001
7.93238
8.22386
8.51439
8.80392
9.0924
9.37978
9.66601
9.95105
10.2348
10.5174
10.7985
11.0784
11.3568
11.6338
11.9093
12.1833
12.4558
12.7267
12.996
13.2636
13.5297
13.794
14.0567
14.3176
14.5768
14.8343
15.09
15.3439
15.5959
15.8462
16.0946
16.3412
16.586
16.8288
17.0698
17.3089
17.5462
17.7815
18.0149
18.2464
18.4761
18.7038
18.9296
19.1534
19.3754
19.5954
19.8136
20.0298
20.2441
20.4565
20.667
20.8756
21.0823
21.2871
21.49
21.691
21.8902
22.0874
22.2829
22.4764
22.6681
22.858
23.046
23.2322
23.4166
23.5992
23.7799
23.9589
24.1361
24.3115
24.4852
24.6571
24.8273
24.9957
25.1624
25.3274
25.4907
25.6523
25.8122
25.9704
26.127
26.2819
26.4352
26.5869
26.7369
26.8853
27.0322
27.1774
27.3211
27.4632
27.6038
27.7428
27.8803
28.0163
28.1507
28.2837
28.4152
28.5452
28.6737
28.8008
28.9264
29.0507
29.1734
29.2948
29.4148
29.5334
29.6506
29.7664
29.8809
29.994
30.1058
30.2162
30.3254
30.4332
30.5397
30.645
30.7489
30.8516
30.953
31.0532
31.1521
31.2497
31.3462
31.4414
31.5355
31.6283
31.7199
31.8104
31.8997
31.9878
32.0747
32.1606
32.2452
32.3287
32.4112
32.4924
32.5726
32.6517
32.7297
32.8066
32.8824
32.9571
33.0308
33.1034
33.1749
33.2454
33.3149
33.3833
33.4507
33.5171
33.5825
33.6468
33.7102
33.7726
33.8339
33.8943
33.9537
34.0121
34.0696
34.1261
34.1816
34.2362
34.2898
34.3425
34.3943
34.4451
34.4949
34.5439
34.5919
34.6391
34.6853
34.7306
34.7749
34.8184
34.861
34.9027
34.9435
34.9835
35.0225
35.0607
35.098
35.1344
35.1699
35.2046
35.2384
35.2714
35.3035
35.3347
35.3651
35.3946
35.4233
35.4512
35.4782
35.5044
35.5297
35.5542
35.5778
35.6006
35.6226
35.6438
35.6641
35.6836
35.7023
35.7202
35.7372
35.7534
35.7688
35.7834
35.7972
35.8101
35.8223
35.8336
35.8441
35.8538
35.8627
35.8708
35.8781
35.8845
35.8902
35.895
35.899
35.9023
35.9047
35.9063
35.9071
-11.7002
-11.6948
-11.6841
-11.6681
-11.6467
-11.62
-11.5879
-11.5506
-11.5078
-11.4598
-11.4064
-11.3476
-11.2836
-11.2142
-11.1395
-11.0594
-10.9741
-10.8834
-10.7874
-10.6861
-10.5794
-10.4675
-10.3503
-10.2278
-10.0999
-9.96683
-9.82844
-9.68479
-9.53587
-9.38171
-9.22231
-9.0577
-8.88789
-8.71291
-8.5328
-8.34758
-8.15732
-7.96205
-7.76184
-7.55676
-7.34689
-7.13232
-6.91317
-6.68954
-6.46157
-6.22938
-5.99314
-5.75298
-5.50907
-5.26158
-5.01066
-4.75648
-4.4992
-4.23896
-3.97592
-3.7102
-3.44195
-3.17128
-2.89831
-2.62317
-2.34594
-2.06675
-1.78569
-1.50287
-1.21838
-0.932324
-0.644795
-0.355891
-0.0657058
0.225665
0.518128
0.81159
1.10596
1.40114
1.69705
1.9936
2.29069
2.58825
2.88617
3.18439
3.48282
3.78137
4.07997
4.37853
4.67698
4.97525
5.27325
5.57092
5.86819
6.16498
6.46124
6.75688
7.05186
7.34611
7.63956
7.93216
8.22386
8.51459
8.80431
9.09297
9.3805
9.66688
9.95204
10.2359
10.5186
10.7998
11.0797
11.3582
11.6353
11.9108
12.1848
12.4573
12.7282
12.9975
13.2652
13.5312
13.7955
14.0581
14.319
14.5781
14.8355
15.0911
15.3449
15.5969
15.847
16.0954
16.3418
16.5864
16.8292
17.07
17.309
17.546
17.7812
18.0145
18.2458
18.4753
18.7028
18.9284
19.1521
19.3739
19.5937
19.8116
20.0276
20.2417
20.4539
20.6642
20.8726
21.0791
21.2836
21.4863
21.6871
21.8861
22.0831
22.2783
22.4716
22.6631
22.8527
23.0405
23.2265
23.4106
23.593
23.7735
23.9522
24.1292
24.3044
24.4778
24.6495
24.8194
24.9876
25.154
25.3188
25.4818
25.6432
25.8028
25.9608
26.1172
26.2719
26.4249
26.5763
26.7261
26.8743
27.0209
27.166
27.3094
27.4513
27.5916
27.7304
27.8677
28.0035
28.1377
28.2704
28.4017
28.5315
28.6598
28.7867
28.9121
29.0361
29.1587
29.2799
29.3996
29.518
29.635
29.7506
29.8649
29.9778
30.0894
30.1997
30.3086
30.4162
30.5226
30.6276
30.7314
30.8339
30.9351
31.0351
31.1338
31.2313
31.3276
31.4227
31.5165
31.6092
31.7007
31.7909
31.8801
31.968
32.0548
32.1405
32.225
32.3084
32.3906
32.4717
32.5518
32.6307
32.7085
32.7853
32.861
32.9355
33.0091
33.0815
33.153
33.2233
33.2927
33.361
33.4283
33.4945
33.5598
33.624
33.6872
33.7495
33.8107
33.871
33.9303
33.9886
34.046
34.1024
34.1578
34.2123
34.2658
34.3184
34.37
34.4207
34.4705
34.5194
34.5673
34.6144
34.6605
34.7057
34.75
34.7934
34.8359
34.8776
34.9183
34.9582
34.9971
35.0352
35.0724
35.1088
35.1443
35.1789
35.2126
35.2455
35.2776
35.3087
35.3391
35.3686
35.3972
35.425
35.452
35.4781
35.5033
35.5278
35.5514
35.5742
35.5961
35.6172
35.6375
35.657
35.6757
35.6935
35.7105
35.7267
35.7421
35.7566
35.7704
35.7833
35.7954
35.8067
35.8172
35.8269
35.8357
35.8438
35.8511
35.8575
35.8632
35.868
35.872
35.8752
35.8777
35.8793
35.8801
-11.664
-11.6588
-11.6482
-11.6324
-11.6114
-11.5851
-11.5535
-11.5167
-11.4747
-11.4273
-11.3747
-11.3169
-11.2538
-11.1855
-11.1119
-11.033
-10.9489
-10.8595
-10.7649
-10.6651
-10.56
-10.4496
-10.334
-10.2131
-10.087
-9.95573
-9.81917
-9.6774
-9.5304
-9.37819
-9.22078
-9.05818
-8.8904
-8.71745
-8.53937
-8.35618
-8.16791
-7.9746
-7.77629
-7.57304
-7.3649
-7.15196
-6.93429
-6.712
-6.4852
-6.25401
-6.01856
-5.77901
-5.53551
-5.28823
-5.03734
-4.78301
-4.52543