/*--------------------------------*- C++ -*----------------------------------*\
| =========                 |                                                 |
| \\      /  F ield         | OpenFOAM: The Open Source CFD Toolbox           |
|  \\    /   O peration     | Version:  2212                                  |
|   \\  /    A nd           | Website:  www.openfoam.com                      |
|    \\/     M anipulation  |                                                 |
\*---------------------------------------------------------------------------*/
FoamFile
{
    version     2.0;
    format      ascii;
    arch        "LSB;label=32;scalar=64";
    class       surfaceScalarField;
    location    "280";
    object      phi;
}
// * * * * * * * * * * * * * * * * * * * * * * * * * * * * * * * * * * * * * //

dimensions      [1 0 -1 0 0 0 0];

oriented        oriented;

internalField   nonuniform List<scalar> 
408640
(
-2066.68
2064.83
-4129.02
2061.73
-6181.41
2051.78
-8217.95
2035.94
-10233
2014.47
-12221.4
1987.76
-14178.3
1956.24
-16099.4
1920.48
-17981.3
1881.16
-19820.9
1838.96
-21616.1
1794.52
-23365.3
1748.44
-25067.3
1701.29
-26721.5
1653.56
-28327.9
1605.71
-29886.8
1558.18
-31398.8
1511.33
-32864.9
1465.47
-34286.4
1420.84
-35664.6
1377.59
-37001.1
1335.85
-38297.3
1295.65
-39554.9
1256.98
-40775.2
1219.81
-41959.8
1184.06
-43110
1149.64
-44227
1116.45
-45311.9
1084.39
-46365.8
1053.35
-47389.5
1023.22
-48383.9
993.903
-49349.7
965.305
-50287.5
937.341
-51197.9
909.939
-52081.4
883.034
-52938.4
856.572
-53769.4
830.508
-54574.6
804.806
-55354.5
779.437
-56109.3
754.378
-56839.4
729.613
-57544.9
705.129
-58226.3
680.919
-58883.7
656.977
-59517.4
633.3
-60127.6
609.885
-60714.8
586.732
-61279
563.84
-61820.6
541.211
-62339.8
518.845
-62836.9
496.743
-63312.2
474.908
-63765.9
453.339
-64198.3
432.04
-64609.6
411.012
-65000.2
390.257
-65370.3
369.776
-65720.2
349.571
-66050.2
329.645
-66360.5
309.999
-66651.5
290.635
-66923.3
271.555
-67176.4
252.76
-67410.9
234.252
-67627.2
216.032
-67825.6
198.102
-68006.3
180.464
-68169.7
163.118
-68316
146.066
-68445.6
129.308
-68558.6
112.846
-68655.6
96.6802
-68736.6
80.8114
-68802.1
65.24
-68852.2
49.9663
-68887.4
34.9906
-68908
20.3127
-68914.1
5.93269
-68906.1
-8.14981
-68884.4
-21.9352
-68849.1
-35.4241
-68800.7
-48.6172
-68739.3
-61.5154
-68665.4
-74.1198
-68579.1
-86.4316
-68480.8
-98.452
-68370.7
-110.183
-68249.2
-121.625
-68116.6
-132.781
-67973
-143.653
-67818.9
-154.242
-67654.4
-164.551
-67480
-174.581
-67295.7
-184.337
-67102
-193.819
-66899
-203.031
-66687.1
-211.975
-66466.5
-220.654
-66237.5
-229.071
-66000.3
-237.23
-65755.2
-245.133
-65502.5
-252.783
-65242.3
-260.184
-64975
-267.34
-64700.8
-274.253
-64419.9
-280.927
-64132.5
-287.366
-63839
-293.573
-63539.4
-299.551
-63234.1
-305.306
-62923.2
-310.839
-62607.1
-316.156
-62285.8
-321.26
-61959.6
-326.154
-61628.7
-330.843
-61293.3
-335.33
-60953.7
-339.619
-60609.9
-343.714
-60262.2
-347.619
-59910.8
-351.339
-59555.9
-354.875
-59197.5
-358.234
-58836
-361.418
-58471.5
-364.431
-58104.2
-367.277
-57734.1
-369.96
-57361.5
-372.484
-56986.5
-374.852
-56609.4
-377.069
-56230.1
-379.137
-55848.9
-381.061
-55466
-382.845
-55081.3
-384.491
-54695.2
-386.003
-54307.7
-387.386
-53918.9
-388.642
-53528.9
-389.775
-53138
-390.789
-52746.2
-391.686
-52353.5
-392.47
-51960.2
-393.144
-51566.3
-393.712
-51172
-394.177
-50777.3
-394.542
-50382.3
-394.809
-49987.1
-394.983
-49591.8
-395.066
-49196.6
-395.06
-48801.4
-394.969
-48406.4
-394.796
-48011.7
-394.544
-47617.2
-394.214
-47223.2
-393.81
-46829.7
-393.335
-46436.6
-392.791
-46044.2
-392.18
-45652.5
-391.505
-45261.5
-390.768
-44871.3
-389.973
-44482
-389.12
-44093.5
-388.213
-43706
-387.253
-43319.5
-386.243
-42934.1
-385.184
-42549.8
-384.08
-42166.6
-382.931
-41784.6
-381.74
-41403.9
-380.509
-41024.4
-379.24
-40646.2
-377.934
-40269.3
-376.593
-39893.9
-375.219
-39519.8
-373.814
-39147.2
-372.38
-38776
-370.917
-38406.3
-369.427
-38038.1
-367.913
-37671.5
-366.375
-37306.4
-364.815
-36942.9
-363.234
-36581
-361.634
-36220.7
-360.015
-35862.1
-358.38
-35505.1
-356.73
-35149.8
-355.065
-34796.1
-353.387
-34444.2
-351.697
-34093.9
-349.996
-33745.4
-348.286
-33398.5
-346.566
-33053.4
-344.839
-32710.1
-343.105
-32368.4
-341.365
-32028.6
-339.621
-31690.4
-337.872
-31354.1
-336.12
-31019.4
-334.366
-30686.6
-332.61
-30355.5
-330.853
-30026.1
-329.096
-29698.5
-327.341
-29372.7
-325.586
-29048.6
-323.834
-28726.3
-322.084
-28405.7
-320.338
-28086.9
-318.596
-27769.8
-316.858
-27454.5
-315.125
-27140.8
-313.399
-26828.9
-311.678
-26518.8
-309.964
-26210.3
-308.258
-25903.5
-306.559
-25598.4
-304.868
-25295
-303.186
-24993.3
-301.513
-24693.3
-299.849
-24394.9
-298.195
-24098.1
-296.551
-23803
-294.918
-23509.6
-293.296
-23217.7
-291.685
-22927.4
-290.085
-22638.8
-288.498
-22351.7
-286.922
-22066.2
-285.359
-21782.2
-283.809
-21499.8
-282.271
-21218.9
-280.747
-20939.5
-279.236
-20661.6
-277.739
-20385.2
-276.255
-20110.3
-274.786
-19836.9
-273.331
-19564.8
-271.89
-19294.3
-270.464
-19025.1
-269.053
-18757.3
-267.656
-18491
-266.275
-18226
-264.909
-17962.3
-263.558
-17700
-262.223
-17439
-260.904
-17179.4
-259.6
-16921
-258.312
-16663.9
-257.04
-16408.1
-255.784
-16153.5
-254.544
-15900.1
-253.321
-15648
-252.113
-15397
-250.923
-15147.2
-249.748
-14898.6
-248.59
-14651.2
-247.449
-14404.8
-246.324
-14159.6
-245.216
-13915.5
-244.125
-13672.5
-243.051
-13430.5
-241.993
-13189.5
-240.952
-12949.6
-239.929
-12710.8
-238.922
-12472.9
-237.932
-12236
-236.959
-12000
-236.003
-11765
-235.065
-11530.9
-234.143
-11297.7
-233.238
-11065.5
-232.351
-10834.1
-231.481
-10603.5
-230.627
-10373.8
-229.791
-10144.9
-228.973
-9916.87
-228.171
-9689.59
-227.386
-9463.09
-226.619
-9237.33
-225.869
-9012.32
-225.136
-8788.03
-224.42
-8564.44
-223.721
-8341.54
-223.039
-8119.3
-222.375
-7897.72
-221.728
-7676.77
-221.098
-7456.44
-220.485
-7236.71
-219.889
-7017.57
-219.311
-6798.99
-218.749
-6580.95
-218.205
-6363.45
-217.678
-6146.46
-217.167
-5929.97
-216.674
-5713.96
-216.199
-5498.42
-215.74
-5283.31
-215.298
-5068.64
-214.873
-4854.37
-214.466
-4640.5
-214.075
-4427.01
-213.702
-4213.87
-213.345
-4001.08
-213.006
-3788.61
-212.684
-3576.45
-212.378
-3364.58
-212.09
-3152.99
-211.819
-2941.65
-211.564
-2730.55
-211.327
-2519.67
-211.107
-2308.99
-210.904
-2098.51
-210.718
-1888.19
-210.55
-1678.03
-210.399
-1468
-210.266
-1258.08
-210.151
-1048.26
-210.054
-838.528
-209.975
-628.851
-209.916
-419.216
-209.875
-209.604
-209.851
-209.844
-2051.74
4115.96
-4099.8
4109.18
-6138.51
4089.88
-8162.28
4059.1
-10165.9
4017.49
-12144.5
3965.66
-14093.3
3904.47
-16008.5
3834.95
-17886.3
3758.36
-19724
3675.94
-21519.2
3588.95
-23269.9
3498.5
-24975
3405.66
-26633.6
3311.4
-28245.2
3216.65
-29809.9
3122.23
-31328.2
3028.91
-32800.7
2937.31
-34228.4
2847.94
-35612.7
2761.17
-36954.7
2677.25
-38255.9
2596.3
-39517.9
2518.35
-40742
2443.34
-41929.7
2371.18
-43082.3
2301.7
-44201.1
2234.72
-45287.2
2170.05
-46341.9
2107.47
-47365.9
2046.78
-48360.3
1987.79
-49325.8
1930.29
-50263
1874.12
-51172.7
1819.12
-52055.3
1765.16
-52911.3
1712.13
-53741.2
1659.93
-54545.3
1608.48
-55324
1557.71
-56077.6
1507.58
-56806.5
1458.04
-57510.9
1409.08
-58191
1360.68
-58847.3
1312.81
-59479.9
1265.47
-60089
1218.66
-60675.1
1172.38
-61238.2
1126.62
-61778.8
1081.38
-62297
1036.67
-62793.1
992.489
-63267.4
948.84
-63720.1
905.726
-64151.6
863.15
-64562
821.115
-64951.8
779.626
-65321
738.685
-65670
698.298
-65999.2
658.466
-66308.7
619.195
-66598.8
580.487
-66869.9
542.347
-67122.2
504.777
-67356.1
467.781
-67571.7
431.361
-67769.4
395.521
-67949.4
360.264
-68112.2
325.591
-68257.9
291.506
-68386.8
258.01
-68499.3
225.105
-68595.6
192.793
-68676.1
161.074
-68741.1
129.95
-68790.7
99.4209
-68825.4
69.4878
-68845.5
40.1504
-68851.2
11.4085
-68842.8
-16.7384
-68820.6
-44.2912
-68784.9
-71.2512
-68736.1
-97.6197
-68674.4
-123.399
-68600.1
-148.59
-68513.4
-173.196
-68414.8
-197.22
-68304.5
-220.664
-68182.7
-243.532
-68049.8
-265.828
-67906
-287.554
-67751.6
-308.716
-67586.9
-329.317
-67412.3
-349.363
-67227.8
-368.857
-67033.9
-387.806
-66830.8
-406.214
-66618.8
-424.087
-66398.1
-441.43
-66168.9
-458.25
-65931.7
-474.553
-65686.5
-490.344
-65433.7
-505.63
-65173.5
-520.419
-64906.1
-534.715
-64631.9
-548.528
-64351
-561.862
-64063.6
-574.726
-63770.1
-587.127
-63470.5
-599.072
-63165.3
-610.568
-62854.5
-621.623
-62538.4
-632.244
-62217.1
-642.439
-61891.1
-652.216
-61560.3
-661.582
-61225
-670.545
-60885.5
-679.113
-60541.8
-687.292
-60194.3
-695.092
-59843.1
-702.52
-59488.3
-709.584
-59130.1
-716.291
-58768.8
-722.649
-58404.5
-728.666
-58037.3
-734.349
-57667.5
-739.707
-57295.1
-744.746
-56920.4
-749.474
-56543.5
-753.899
-56164.4
-758.028
-55783.5
-761.868
-55400.8
-765.427
-55016.5
-768.712
-54630.6
-771.731
-54243.3
-774.489
-53854.8
-776.995
-53465.2
-779.254
-53074.6
-781.275
-52683
-783.063
-52290.7
-784.626
-51897.7
-785.969
-51504.2
-787.1
-51110.1
-788.024
-50715.8
-788.748
-50321.1
-789.279
-49926.3
-789.622
-49531.4
-789.782
-49136.5
-789.767
-48741.7
-789.582
-48347
-789.232
-47952.6
-788.722
-47558.6
-788.06
-47164.9
-787.249
-46771.8
-786.295
-46379.1
-785.203
-45987.1
-783.979
-45595.8
-782.626
-45205.1
-781.151
-44815.3
-779.557
-44426.4
-777.849
-44038.3
-776.032
-43651.2
-774.11
-43265.1
-772.088
-42880.1
-769.97
-42496.2
-767.759
-42113.4
-765.46
-41731.8
-763.077
-41351.5
-760.614
-40972.4
-758.074
-40594.6
-755.461
-40218.2
-752.779
-39843.1
-750.03
-39469.4
-747.219
-39097.2
-744.349
-38726.4
-741.423
-38357.2
-738.444
-37989.4
-735.414
-37623.2
-732.338
-37258.5
-729.217
-36895.4
-726.056
-36534
-722.855
-36174.1
-719.619
-35815.9
-716.349
-35459.3
-713.048
-35104.4
-709.719
-34751.1
-706.363
-34399.6
-702.984
-34049.7
-699.582
-33701.6
-696.162
-33355.2
-692.723
-33010.5
-689.27
-32667.5
-685.802
-32326.3
-682.323
-31986.8
-678.835
-31649.1
-675.338
-31313.1
-671.835
-30978.9
-668.327
-30646.5
-664.817
-30315.8
-661.304
-29986.8
-657.792
-29659.6
-654.281
-29334.2
-650.773
-29010.5
-647.27
-28688.6
-643.772
-28368.4
-640.28
-28050
-636.797
-27733.3
-633.323
-27418.3
-629.859
-27105.1
-626.407
-26793.6
-622.967
-26483.8
-619.54
-26175.7
-616.129
-25869.3
-612.732
-25564.6
-609.352
-25261.6
-605.989
-24960.3
-602.644
-24660.6
-599.318
-24362.6
-596.012
-24066.2
-592.726
-23771.5
-589.461
-23478.4
-586.218
-23186.9
-582.997
-22897
-579.8
-22608.7
-576.626
-22322
-573.476
-22036.8
-570.351
-21753.2
-567.252
-21471.2
-564.178
-21190.6
-561.131
-20911.6
-558.111
-20634.1
-555.118
-20358.1
-552.152
-20083.5
-549.215
-19810.4
-546.306
-19538.8
-543.426
-19268.5
-540.576
-18999.7
-537.755
-18732.3
-534.963
-18466.3
-532.202
-18201.6
-529.472
-17938.3
-526.772
-17676.4
-524.103
-17415.7
-521.465
-17156.4
-518.859
-16898.4
-516.285
-16641.6
-513.742
-16386.1
-511.231
-16131.8
-508.753
-15878.8
-506.307
-15627
-503.894
-15376.4
-501.514
-15126.9
-499.166
-14878.7
-496.852
-14631.5
-494.57
-14385.5
-492.322
-14140.6
-490.108
-13896.8
-487.927
-13654.1
-485.779
-13412.5
-483.665
-13171.8
-481.585
-12932.3
-479.538
-12693.7
-477.526
-12456.1
-475.547
-12219.5
-473.603
-11983.9
-471.692
-11749.2
-469.816
-11515.4
-467.974
-11282.6
-466.166
-11050.6
-464.392
-10819.5
-462.652
-10589.3
-460.947
-10359.9
-459.276
-10131.3
-457.639
-9903.54
-456.036
-9676.56
-454.468
-9450.36
-452.934
-9224.91
-451.435
-9000.2
-449.969
-8776.2
-448.538
-8552.91
-447.142
-8330.31
-445.78
-8108.37
-444.452
-7887.09
-443.158
-7666.44
-441.899
-7446.4
-440.674
-7226.97
-439.483
-7008.12
-438.326
-6789.83
-437.204
-6572.09
-436.116
-6354.88
-435.062
-6138.19
-434.043
-5921.99
-433.057
-5706.27
-432.106
-5491.01
-431.189
-5276.19
-430.306
-5061.81
-429.458
-4847.83
-428.643
-4634.25
-427.862
-4421.04
-427.116
-4208.19
-426.403
-3995.69
-425.725
-3783.5
-425.081
-3571.63
-424.47
-3360.05
-423.894
-3148.74
-423.352
-2937.68
-422.844
-2726.86
-422.37
-2516.27
-421.93
-2305.88
-421.524
-2095.68
-421.152
-1885.65
-420.816
-1675.76
-420.514
-1466.02
-420.248
-1256.39
-420.018
-1046.85
-419.824
-837.401
-419.667
-628.008
-419.547
-418.656
-419.465
-209.327
-419.42
-419.41
-2033.78
6149.11
-4063.94
6138.72
-6085.43
6110.76
-8093.2
6066.24
-10082.4
6006.1
-12048.6
5931.14
-13987.3
5842.54
-15894.8
5741.74
-17767.6
5630.45
-19602.8
5510.38
-21397.8
5383.28
-23150.8
5250.73
-24860.1
5114.22
-26524.5
4975.15
-28143.5
4834.87
-29716.6
4694.61
-31243.9
4555.51
-32725.8
4418.54
-34163
4284.48
-35556.4
4153.95
-36907.2
4027.39
-38216.5
3905.04
-39485.8
3787.03
-40716.4
3673.33
-41909.6
3563.84
-43066.8
3458.38
-44189.4
3356.73
-45278.5
3258.6
-46335.2
3163.73
-47360.8
3071.8
-48356
2982.52
-49321.8
2895.61
-50259
2810.81
-51168.2
2727.88
-52050.1
2646.6
-52905.3
2566.8
-53734.1
2488.3
-54537
2410.99
-55314.5
2334.75
-56066.9
2259.49
-56794.4
2185.17
-57497.5
2111.72
-58176.3
2039.11
-58831.3
1967.32
-59462.5
1896.34
-60070.4
1826.15
-60655.2
1756.75
-61217.1
1688.14
-61756.4
1620.32
-62273.4
1553.29
-62768.4
1487.05
-63241.5
1421.61
-63693.1
1356.97
-64123.4
1293.14
-64532.8
1230.12
-64921.4
1167.92
-65289.6
1106.54
-65637.6
1045.99
-65965.7
986.269
-66274.2
927.392
-66563.4
869.36
-66833.5
812.179
-67084.9
755.853
-67317.8
700.387
-67532.5
645.786
-67729.3
592.055
-67908.5
539.197
-68070.4
487.216
-68215.3
436.116
-68343.4
385.9
-68455.1
336.57
-68550.7
288.129
-68630.4
240.578
-68694.6
193.919
-68743.5
148.153
-68777.5
103.28
-68796.9
59.3011
-68801.9
16.2152
-68792.8
-25.9784
-68770
-67.281
-68733.8
-107.694
-68684.3
-147.221
-68622
-185.862
-68547.1
-223.623
-68460
-260.506
-68360.8
-296.516
-68250
-331.656
-68127.7
-365.932
-67994.3
-399.349
-67850.1
-431.914
-67695.2
-463.631
-67530.2
-494.507
-67355.1
-524.55
-67170.2
-553.767
-66976
-582.165
-66772.5
-609.752
-66560.1
-636.537
-66339.1
-662.528
-66109.7
-687.734
-65872.1
-712.163
-65626.7
-735.827
-65373.6
-758.733
-65113.2
-780.892
-64845.6
-802.314
-64571.1
-823.01
-64290
-842.99
-64002.5
-862.264
-63708.8
-880.843
-63409.1
-898.739
-63103.7
-915.962
-62792.8
-932.523
-62476.6
-948.434
-62155.3
-963.707
-61829.1
-978.352
-61498.3
-992.381
-61163
-1005.81
-60823.4
-1018.64
-60479.7
-1030.89
-60132.2
-1042.57
-59781
-1053.7
-59426.2
-1064.27
-59068.1
-1074.32
-58706.8
-1083.84
-58342.6
-1092.85
-57975.5
-1101.35
-57605.7
-1109.37
-57233.4
-1116.92
-56858.8
-1123.99
-56482
-1130.62
-56103.1
-1136.8
-55722.3
-1142.54
-55339.7
-1147.87
-54955.5
-1152.78
-54569.8
-1157.3
-54182.7
-1161.42
-53794.4
-1165.17
-53405
-1168.54
-53014.5
-1171.56
-52623.2
-1174.23
-52231.1
-1176.57
-51838.3
-1178.57
-51445
-1180.26
-51051.2
-1181.63
-50657.1
-1182.71
-50262.7
-1183.5
-49868.1
-1184
-49473.4
-1184.23
-49078.8
-1184.2
-48684.3
-1183.92
-48289.9
-1183.38
-47895.8
-1182.61
-47502.1
-1181.61
-47108.7
-1180.39
-46715.8
-1178.95
-46323.5
-1177.31
-45931.8
-1175.46
-45540.8
-1173.43
-45150.5
-1171.21
-44761
-1168.81
-44372.4
-1166.25
-43984.7
-1163.52
-43597.9
-1160.63
-43212.2
-1157.59
-42827.5
-1154.41
-42443.9
-1151.09
-42061.5
-1147.64
-41680.3
-1144.06
-41300.3
-1140.36
-40921.5
-1136.55
-40544.1
-1132.63
-40168.1
-1128.6
-39793.4
-1124.47
-39420.1
-1120.26
-39048.2
-1115.95
-38677.8
-1111.56
-38308.9
-1107.09
-37941.5
-1102.54
-37575.7
-1097.92
-37211.4
-1093.24
-36848.7
-1088.5
-36487.6
-1083.7
-36128.1
-1078.84
-35770.3
-1073.93
-35414.1
-1068.98
-35059.5
-1063.99
-34706.7
-1058.95
-34355.5
-1053.88
-34006
-1048.78
-33658.3
-1043.65
-33312.3
-1038.49
-32968
-1033.31
-32625.4
-1028.11
-32284.6
-1022.89
-31945.5
-1017.66
-31608.1
-1012.42
-31272.6
-1007.16
-30938.7
-1001.9
-30606.7
-996.638
-30276.3
-991.37
-29947.8
-986.103
-29621
-980.837
-29295.9
-975.577
-28972.6
-970.322
-28651.1
-965.076
-28331.3
-959.84
-28013.2
-954.617
-27696.9
-949.407
-27382.3
-944.213
-27069.5
-939.036
-26758.4
-933.877
-26448.9
-928.739
-26141.2
-923.623
-25835.2
-918.53
-25530.9
-913.461
-25228.3
-908.419
-24927.3
-903.403
-24628
-898.416
-24330.4
-893.458
-24034.4
-888.531
-23740
-883.635
-23447.3
-878.772
-23156.1
-873.943
-22866.6
-869.149
-22578.7
-864.39
-22292.3
-859.667
-22007.5
-854.982
-21724.3
-850.335
-21442.6
-845.727
-21162.4
-841.158
-20883.7
-836.629
-20606.6
-832.142
-20330.9
-827.696
-20056.7
-823.292
-19784
-818.931
-19512.6
-814.613
-19242.8
-810.339
-18974.3
-806.109
-18707.2
-801.924
-18441.6
-797.784
-18177.3
-793.691
-17914.3
-789.643
-17652.7
-785.641
-17392.4
-781.687
-17133.4
-777.779
-16875.7
-773.92
-16619.3
-770.108
-16364.1
-766.344
-16110.2
-762.628
-15857.5
-758.962
-15606
-755.344
-15355.7
-751.775
-15106.6
-748.255
-14858.6
-744.786
-14611.8
-741.365
-14366.2
-737.995
-14121.6
-734.675
-13878.1
-731.405
-13635.7
-728.185
-13394.4
-725.016
-13154.1
-721.897
-12914.8
-718.83
-12676.6
-715.813
-12439.3
-712.846
-12203
-709.931
-11967.7
-707.067
-11733.3
-704.254
-11499.9
-701.492
-11267.3
-698.782
-11035.7
-696.122
-10804.9
-693.514
-10575
-690.958
-10345.9
-688.453
-10117.6
-685.999
-9890.15
-683.596
-9663.48
-681.245
-9437.58
-678.946
-9212.43
-676.698
-8988.02
-674.501
-8764.33
-672.356
-8541.34
-670.262
-8319.04
-668.22
-8097.4
-666.23
-7876.42
-664.29
-7656.06
-662.402
-7436.32
-660.566
-7217.19
-658.781
-6998.63
-657.047
-6780.64
-655.365
-6563.19
-653.734
-6346.27
-652.154
-6129.87
-650.626
-5913.96
-649.148
-5698.54
-647.722
-5483.57
-646.348
-5269.04
-645.024
-5054.95
-643.752
-4841.26
-642.531
-4627.97
-641.36
-4415.05
-640.241
-4202.49
-639.173
-3990.27
-638.156
-3778.38
-637.191
-3566.79
-636.276
-3355.49
-635.412
-3144.47
-634.599
-2933.7
-633.837
-2723.17
-633.126
-2512.86
-632.467
-2302.75
-631.858
-2092.84
-631.302
-1883.09
-630.797
-1673.49
-630.344
-1464.03
-629.945
-1254.68
-629.6
-1045.44
-629.309
-836.267
-629.074
-627.158
-628.896
-418.089
-628.773
-209.042
-628.706
-628.692
-2010.17
8158.65
-4016.98
8144.89
-6016.01
8109.14
-8002.86
8052.43
-9973.27
7975.84
-11923.1
7880.31
-13848.6
7767.27
-15745.9
7638.4
-17612
7495.76
-19443.7
7341.42
-21238.7
7177.46
-22994.5
7005.83
-24709.5
6828.39
-26382
6646.9
-28010.9
6463.06
-29595.5
6278.5
-31135.5
6094.71
-32630.6
5912.99
-34081.3
5734.47
-35488.1
5560.03
-36851.7
5390.34
-38173.1
5225.85
-39453.5
5066.81
-40694.1
4913.3
-41896.1
4765.29
-43060.9
4622.62
-44189.8
4485.06
-45284
4352.31
-46344.9
4224.03
-47373.4
4099.86
-48370.8
3979.41
-49338
3862.32
-50275.9
3748.23
-51185.3
3636.81
-52067
3527.77
-52921.5
3420.83
-53749.4
3315.77
-54551.2
3212.39
-55327.4
3110.52
-56078.4
3010.04
-56804.5
2910.84
-57506.1
2812.86
-58183.4
2716.03
-58836.8
2620.31
-59466.6
2525.68
-60072.9
2432.12
-60656.2
2339.62
-61216.6
2248.17
-61754.5
2157.78
-62270
2068.45
-62763.5
1980.17
-63235.2
1892.96
-63685.4
1806.81
-64114.3
1721.74
-64522.3
1637.76
-64909.6
1554.86
-65276.5
1473.06
-65623.2
1392.36
-65950
1312.78
-66257.2
1234.32
-66545.1
1156.98
-66814
1080.77
-67064.2
1005.71
-67295.9
931.791
-67509.4
859.026
-67705
787.421
-67883.1
716.98
-68043.8
647.708
-68187.6
579.611
-68314.6
512.692
-68425.2
446.954
-68519.7
382.402
-68598.4
319.037
-68661.6
256.861
-68709.5
195.875
-68742.5
136.081
-68760.9
77.4788
-68765
20.0672
-68755
-36.1546
-68731.2
-91.1883
-68694.1
-145.036
-68643.8
-197.701
-68580.6
-249.187
-68504.9
-299.498
-68416.9
-348.639
-68316.9
-396.615
-68205.3
-443.432
-68082.3
-489.097
-67948.1
-533.616
-67803.1
-576.999
-67647.6
-619.251
-67481.9
-660.384
-67306.1
-700.404
-67120.6
-739.324
-66925.7
-777.151
-66721.7
-813.898
-66508.7
-849.575
-66287.1
-884.193
-66057.1
-917.765
-65819
-950.302
-65573.1
-981.818
-65319.5
-1012.32
-65058.6
-1041.84
-64790.6
-1070.36
-64515.7
-1097.92
-64234.2
-1124.53
-63946.2
-1150.19
-63652.2
-1174.93
-63352.1
-1198.76
-63046.4
-1221.69
-62735.2
-1243.74
-62418.6
-1264.92
-62097.1
-1285.26
-61770.6
-1304.75
-61439.6
-1323.43
-61104
-1341.3
-60764.2
-1358.38
-60420.4
-1374.68
-60072.7
-1390.23
-59721.3
-1405.03
-59366.4
-1419.11
-59008.1
-1432.47
-58646.8
-1445.14
-58282.4
-1457.12
-57915.2
-1468.44
-57545.4
-1479.11
-57173.1
-1489.14
-56798.4
-1498.55
-56421.5
-1507.36
-56042.6
-1515.57
-55661.9
-1523.21
-55279.3
-1530.29
-54895.1
-1536.82
-54509.5
-1542.82
-54122.5
-1548.29
-53734.2
-1553.27
-53344.9
-1557.75
-52954.5
-1561.76
-52563.3
-1565.3
-52171.3
-1568.39
-51778.7
-1571.05
-51385.5
-1573.28
-50991.8
-1575.09
-50597.8
-1576.51
-50203.6
-1577.55
-49809.2
-1578.2
-49414.8
-1578.5
-49020.3
-1578.44
-48626
-1578.05
-48231.9
-1577.32
-47838
-1576.28
-47444.5
-1574.93
-47051.4
-1573.29
-46658.7
-1571.36
-46266.7
-1569.16
-45875.2
-1566.69
-45484.5
-1563.96
-45094.4
-1560.99
-44705.2
-1557.79
-44316.9
-1554.36
-43929.5
-1550.71
-43543
-1546.85
-43157.6
-1542.79
-42773.2
-1538.54
-42389.9
-1534.11
-42007.8
-1529.5
-41626.9
-1524.72
-41247.3
-1519.78
-40868.9
-1514.69
-40491.8
-1509.45
-40116.1
-1504.08
-39741.7
-1498.57
-39368.8
-1492.94
-38997.2
-1487.2
-38627.2
-1481.34
-38258.7
-1475.37
-37891.6
-1469.31
-37526.2
-1463.15
-37162.2
-1456.9
-36799.9
-1450.57
-36439.2
-1444.17
-36080
-1437.69
-35722.6
-1431.15
-35366.8
-1424.54
-35012.6
-1417.88
-34660.1
-1411.17
-34309.3
-1404.41
-33960.3
-1397.6
-33612.9
-1390.76
-33267.2
-1383.88
-32923.3
-1376.97
-32581.1
-1370.04
-32240.7
-1363.08
-31902
-1356.1
-31565.1
-1349.11
-31229.9
-1342.1
-30896.4
-1335.09
-30564.7
-1328.07
-30234.8
-1321.05
-29906.7
-1314.02
-29580.2
-1307
-29255.6
-1299.99
-28932.7
-1292.98
-28611.5
-1285.99
-28292.1
-1279.01
-27974.5
-1272.05
-27658.5
-1265.1
-27344.4
-1258.18
-27031.9
-1251.27
-26721.1
-1244.4
-26412.1
-1237.55
-26104.8
-1230.73
-25799.2
-1223.94
-25495.2
-1217.18
-25193
-1210.46
-24892.4
-1203.78
-24593.5
-1197.13
-24296.2
-1190.52
-24000.6
-1183.95
-23706.7
-1177.43
-23414.3
-1170.94
-23123.6
-1164.51
-22834.4
-1158.12
-22546.9
-1151.77
-22260.9
-1145.48
-21976.5
-1139.24
-21693.6
-1133.04
-21412.3
-1126.9
-21132.5
-1120.81
-20854.2
-1114.77
-20577.4
-1108.79
-20302.1
-1102.87
-20028.2
-1097
-19755.9
-1091.19
-19484.9
-1085.43
-19215.4
-1079.73
-18947.3
-1074.1
-18680.6
-1068.52
-18415.3
-1063
-18151.4
-1057.55
-17888.8
-1052.15
-17627.5
-1046.82
-17367.6
-1041.55
-17108.9
-1036.34
-16851.6
-1031.2
-16595.5
-1026.12
-16340.7
-1021.1
-16087.1
-1016.15
-15834.8
-1011.26
-15583.7
-1006.44
-15333.7
-1001.69
-15085
-996.996
-14837.4
-992.372
-14590.9
-987.814
-14345.6
-983.323
-14101.3
-978.898
-13858.2
-974.541
-13616.1
-970.25
-13375.2
-966.027
-13135.2
-961.871
-12896.3
-957.783
-12658.4
-953.762
-12421.4
-949.809
-12185.5
-945.925
-11950.5
-942.108
-11716.5
-938.359
-11483.3
-934.679
-11251.1
-931.067
-11019.8
-927.523
-10789.3
-924.048
-10559.7
-920.641
-10331
-917.302
-10103
-914.032
-9875.9
-910.831
-9649.55
-907.698
-9423.97
-904.634
-9199.15
-901.638
-8975.06
-898.711
-8751.69
-895.853
-8529.02
-893.063
-8307.03
-890.342
-8085.71
-887.689
-7865.04
-885.105
-7645.01
-882.589
-7425.59
-880.142
-7206.76
-877.763
-6988.52
-875.453
-6770.84
-873.211
-6553.71
-871.038
-6337.1
-868.933
-6121.01
-866.896
-5905.42
-864.928
-5690.3
-863.028
-5475.64
-861.196
-5261.43
-859.432
-5047.64
-857.737
-4834.26
-856.109
-4621.28
-854.55
-4408.66
-853.059
-4196.41
-851.636
-3984.5
-850.281
-3772.91
-848.994
-3561.63
-847.775
-3350.64
-846.623
-3139.92
-845.54
-2929.45
-844.525
-2719.23
-843.578
-2509.22
-842.699
-2299.42
-841.888
-2089.81
-841.146
-1880.36
-840.474
-1671.07
-839.871
-1461.91
-839.339
-1252.87
-838.878
-1043.93
-838.491
-835.06
-838.178
-626.253
-837.94
-417.488
-837.777
-208.743
-837.689
-837.674
-1986.54
10144.5
-3969.92
10127.6
-5946.39
10084.9
-7912.15
10017.5
-9863.46
9926.44
-11796.7
9812.8
-13708.3
9678.14
-15595
9524.34
-17453.6
9353.64
-19281.4
9168.36
-21075.5
8970.84
-22833.8
8763.28
-24554
8547.8
-26234.3
8326.46
-27873.4
8101.3
-29469.9
7874.24
-31023.1
7647.13
-32532.4
7421.61
-33997.8
7199.14
-35419.4
6980.89
-36797.5
6767.81
-38132.9
6560.58
-39426.4
6359.66
-40679
6165.29
-41891.9
5977.55
-43066.2
5796.37
-44203.3
5621.58
-45304.5
5452.89
-46370.9
5289.94
-47403.9
5132.34
-48404.7
4979.64
-49374.2
4831.39
-50313.7
4687.17
-51223.9
4546.55
-52105.7
4409.14
-52960
4274.59
-53787.2
4142.57
-54588.1
4012.82
-55363.1
3885.1
-56112.7
3759.22
-56837.4
3635.03
-57537.3
3512.42
-58213
3391.31
-58864.8
3271.63
-59492.8
3153.33
-60097.5
3036.39
-60679.1
2920.79
-61237.8
2806.52
-61774
2693.57
-62287.9
2581.95
-62779.7
2471.65
-63249.8
2362.68
-63698.4
2255.05
-64125.7
2148.76
-64532.1
2043.82
-64917.9
1940.25
-65283.2
1838.04
-65628.3
1737.22
-65953.7
1637.78
-66259.4
1539.74
-66545.8
1443.12
-66813.3
1347.9
-67062
1254.12
-67292.2
1161.76
-67504.3
1070.85
-67698.6
981.385
-67875.2
893.376
-68034.6
806.829
-68177
721.751
-68302.7
638.145
-68412
556.016
-68505.2
475.369
-68582.6
396.206
-68644.5
318.53
-68691.2
242.342
-68722.9
167.644
-68740.1
94.4351
-68742.9
22.7155
-68731.8
-47.5165
-68706.9
-116.263
-68668.5
-183.527
-68617.1
-249.312
-68552.8
-313.623
-68476
-376.465
-68387
-437.844
-68285.9
-497.767
-68173.3
-556.24
-68049.2
-613.274
-67914.1
-668.875
-67768.1
-723.055
-67611.7
-775.822
-67445
-827.189
-67268.3
-877.167
-67082
-925.767
-66886.2
-973.003
-66681.3
-1018.89
-66467.5
-1063.43
-66245.1
-1106.66
-66014.3
-1148.58
-65775.5
-1189.2
-65528.8
-1228.54
-65274.5
-1266.63
-65012.9
-1303.47
-64744.2
-1339.08
-64468.7
-1373.48
-64186.5
-1406.69
-63898
-1438.73
-63603.4
-1469.6
-63302.8
-1499.34
-62996.5
-1527.96
-62684.7
-1555.48
-62367.7
-1581.91
-62045.7
-1607.28
-61718.8
-1631.6
-61387.3
-1654.9
-61051.3
-1677.2
-60711.1
-1698.5
-60366.9
-1718.84
-60018.9
-1738.24
-59667.1
-1756.7
-59311.9
-1774.25
-58953.4
-1790.92
-58591.7
-1806.71
-58227.1
-1821.65
-57859.7
-1835.76
-57489.6
-1849.06
-57117.1
-1861.56
-56742.3
-1873.29
-56365.2
-1884.26
-55986.2
-1894.5
-55605.3
-1904.01
-55222.6
-1912.82
-54838.3
-1920.95
-54452.6
-1928.42
-54065.5
-1935.24
-53677.2
-1941.42
-53287.8
-1947
-52897.5
-1951.97
-52506.2
-1956.37
-52114.2
-1960.21
-51721.6
-1963.5
-51328.5
-1966.26
-50934.9
-1968.51
-50540.9
-1970.26
-50146.8
-1971.52
-49752.5
-1972.32
-49358.1
-1972.67
-48963.8
-1972.57
-48569.6
-1972.06
-48175.6
-1971.13
-47781.8
-1969.81
-47388.4
-1968.1
-46995.5
-1966.03
-46603
-1963.6
-46211.2
-1960.83
-45819.9
-1957.72
-45429.3
-1954.3
-45039.5
-1950.57
-44650.5
-1946.55
-44262.4
-1942.25
-43875.2
-1937.67
-43489
-1932.83
-43103.8
-1927.75
-42719.7
-1922.42
-42336.7
-1916.86
-41954.8
-1911.09
-41574.2
-1905.11
-41194.8
-1898.92
-40816.7
-1892.55
-40439.9
-1885.99
-40064.5
-1879.27
-39690.4
-1872.37
-39317.8
-1865.33
-38946.6
-1858.13
-38576.9
-1850.8
-38208.6
-1843.34
-37841.9
-1835.75
-37476.8
-1828.04
-37113.2
-1820.23
-36751.2
-1812.31
-36390.8
-1804.3
-36032
-1796.2
-35674.9
-1788.01
-35319.4
-1779.75
-34965.6
-1771.42
-34613.5
-1763.02
-34263.1
-1754.57
-33914.4
-1746.06
-33567.4
-1737.5
-33222.1
-1728.9
-32878.5
-1720.27
-32536.7
-1711.59
-32196.6
-1702.89
-31858.3
-1694.17
-31521.7
-1685.43
-31186.9
-1676.67
-30853.9
-1667.9
-30522.5
-1659.12
-30193
-1650.34
-29865.2
-1641.56
-29539.2
-1632.79
-29214.9
-1624.02
-28892.4
-1615.26
-28571.6
-1606.52
-28252.6
-1597.8
-27935.3
-1589.09
-27619.8
-1580.41
-27306
-1571.76
-26993.9
-1563.13
-26683.5
-1554.54
-26374.9
-1545.98
-26067.9
-1537.45
-25762.7
-1528.97
-25459.1
-1520.52
-25157.3
-1512.12
-24857.1
-1503.77
-24558.6
-1495.46
-24261.7
-1487.2
-23966.4
-1478.99
-23672.8
-1470.84
-23380.9
-1462.74
-23090.5
-1454.69
-22801.7
-1446.71
-22514.6
-1438.78
-22229
-1430.91
-21944.9
-1423.11
-21662.4
-1415.37
-21381.5
-1407.7
-21102.1
-1400.09
-20824.1
-1392.55
-20547.7
-1385.07
-20272.8
-1377.67
-19999.3
-1370.33
-19727.3
-1363.07
-19456.8
-1355.88
-19187.6
-1348.76
-18919.9
-1341.72
-18653.6
-1334.75
-18388.6
-1327.86
-18125
-1321.04
-17862.8
-1314.3
-17601.9
-1307.63
-17342.3
-1301.05
-17084
-1294.54
-16827.1
-1288.12
-16571.4
-1281.77
-16316.9
-1275.5
-16063.7
-1269.32
-15811.7
-1263.21
-15560.9
-1257.19
-15311.3
-1251.24
-15062.9
-1245.38
-14815.7
-1239.61
-14569.6
-1233.91
-14324.6
-1228.3
-14080.7
-1222.77
-13837.9
-1217.33
-13596.2
-1211.97
-13355.6
-1206.69
-13115.9
-1201.5
-12877.4
-1196.39
-12639.8
-1191.37
-12403.2
-1186.43
-12167.6
-1181.58
-11933
-1176.81
-11699.2
-1172.13
-11466.5
-1167.53
-11234.6
-1163.02
-11003.6
-1158.59
-10773.5
-1154.25
-10544.2
-1149.99
-10315.8
-1145.82
-10088.2
-1141.73
-9861.36
-1137.74
-9635.34
-1133.82
-9410.09
-1129.99
-9185.59
-1126.25
-8961.83
-1122.59
-8738.79
-1119.02
-8516.44
-1115.54
-8294.78
-1112.14
-8073.79
-1108.82
-7853.44
-1105.6
-7633.73
-1102.45
-7414.63
-1099.4
-7196.13
-1096.42
-6978.2
-1093.54
-6760.84
-1090.74
-6544.03
-1088.02
-6327.75
-1085.39
-6111.97
-1082.85
-5896.69
-1080.39
-5681.89
-1078.02
-5467.55
-1075.73
-5253.65
-1073.52
-5040.18
-1071.41
-4827.12
-1069.37
-4614.44
-1067.43
-4402.15
-1065.56
-4190.21
-1063.79
-3978.61
-1062.09
-3767.33
-1060.48
-3556.36
-1058.96
-3345.68
-1057.52
-3135.27
-1056.17
-2925.12
-1054.9
-2715.21
-1053.72
-2505.51
-1052.62
-2296.02
-1051.61
-2086.72
-1050.68
-1877.58
-1049.84
-1668.6
-1049.09
-1459.75
-1048.42
-1251.02
-1047.85
-1042.38
-1047.36
-833.824
-1046.97
-625.326
-1046.68
-416.869
-1046.47
-208.433
-1046.36
-1046.35
-1960.74
12104.5
-3918.66
12084.8
-5870.59
12036.1
-7813.33
11959.5
-9743.69
11856
-11658.5
11726.8
-13554.7
11573.5
-15429.2
11398
-17279.1
11202.7
-19101.6
10990.1
-20894.2
10762.5
-22654.2
10522.5
-24379.4
10272.2
-26067.7
10013.9
-27717.2
9750.01
-29326.4
9482.65
-30894.1
9213.98
-32419.3
8945.97
-33901.3
8680.39
-35339.9
8418.73
-36735
8162.23
-38087
7911.87
-39396.4
7668.33
-40663.9
7432.1
-41890.4
7203.42
-43077
6982.38
-44224.9
6768.91
-45335.4
6562.79
-46409.7
6363.71
-47449.2
6171.26
-48455
5984.98
-49428.5
5804.37
-50370.8
5628.93
-51282.9
5458.16
-52165.8
5291.58
-53020.4
5128.73
-53847.5
4969.2
-54647.7
4812.62
-55421.8
4658.69
-56170.1
4507.14
-56893.3
4357.75
-57591.7
4210.37
-58265.6
4064.86
-58915.6
3921.14
-59541.8
3779.12
-60144.5
3638.78
-60724.2
3500.06
-61281
3362.96
-61815.3
3227.45
-62327.3
3093.55
-62817.2
2961.23
-63285.4
2830.52
-63732.1
2701.41
-64157.6
2573.91
-64562.2
2448.04
-64946.1
2323.8
-65309.6
2201.21
-65652.9
2080.27
-65976.5
1960.99
-66280.4
1843.4
-66565.1
1727.49
-66830.8
1613.29
-67077.8
1500.79
-67306.3
1390.01
-67516.7
1280.97
-67709.2
1173.66
-67884.2
1068.09
-68041.9
964.287
-68182.7