/*--------------------------------*- C++ -*----------------------------------*\
| =========                 |                                                 |
| \\      /  F ield         | OpenFOAM: The Open Source CFD Toolbox           |
|  \\    /   O peration     | Version:  2212                                  |
|   \\  /    A nd           | Website:  www.openfoam.com                      |
|    \\/     M anipulation  |                                                 |
\*---------------------------------------------------------------------------*/
FoamFile
{
    version     2.0;
    format      ascii;
    arch        "LSB;label=32;scalar=64";
    class       volScalarField;
    location    "330";
    object      p_rgh;
}
// * * * * * * * * * * * * * * * * * * * * * * * * * * * * * * * * * * * * * //

dimensions      [1 -1 -2 0 0 0 0];

internalField   nonuniform List<scalar> 
204800
(
18.612
18.6026
18.5844
18.5572
18.5213
18.4769
18.4243
18.3637
18.2956
18.2203
18.1382
18.0498
17.9555
17.8557
17.7511
17.6419
17.5287
17.4118
17.2919
17.1691
17.0441
16.917
16.7883
16.6584
16.5275
16.396
16.2642
16.1322
16.0004
15.8691
15.7384
15.6087
15.48
15.3526
15.2267
15.1025
14.9801
14.8598
14.7416
14.6257
14.5124
14.4016
14.2936
14.1884
14.0863
13.9872
13.8913
13.7987
13.7095
13.6238
13.5416
13.463
13.3881
13.317
13.2496
13.1861
13.1266
13.0709
13.0192
12.9715
12.9279
12.8882
12.8527
12.8212
12.7937
12.7704
12.7511
12.7358
12.7246
12.7175
12.7143
12.7152
12.72
12.7287
12.7413
12.7578
12.7781
12.8022
12.8301
12.8616
12.8968
12.9356
12.9779
13.0237
13.0729
13.1254
13.1813
13.2404
13.3028
13.3682
13.4366
13.5081
13.5824
13.6596
13.7396
13.8223
13.9076
13.9955
14.0859
14.1787
14.2739
14.3713
14.471
14.5727
14.6766
14.7824
14.8902
14.9998
15.1113
15.2244
15.3392
15.4555
15.5734
15.6928
15.8135
15.9355
16.0588
16.1833
16.3089
16.4356
16.5632
16.6919
16.8214
16.9518
17.0829
17.2148
17.3473
17.4804
17.6142
17.7484
17.8831
18.0182
18.1537
18.2895
18.4255
18.5618
18.6983
18.835
18.9717
19.1086
19.2454
19.3823
19.519
19.6558
19.7924
19.9288
20.0651
20.2012
20.337
20.4725
20.6078
20.7427
20.8773
21.0115
21.1452
21.2786
21.4115
21.5439
21.6758
21.8073
21.9381
22.0684
22.1982
22.3273
22.4559
22.5838
22.7111
22.8377
22.9636
23.0889
23.2135
23.3373
23.4605
23.5829
23.7045
23.8254
23.9455
24.0649
24.1835
24.3013
24.4182
24.5344
24.6498
24.7643
24.878
24.9909
25.103
25.2142
25.3245
25.434
25.5426
25.6504
25.7573
25.8634
25.9685
26.0728
26.1763
26.2788
26.3804
26.4812
26.5811
26.6801
26.7782
26.8754
26.9718
27.0672
27.1618
27.2554
27.3482
27.44
27.531
27.6211
27.7103
27.7986
27.886
27.9725
28.0581
28.1429
28.2267
28.3097
28.3918
28.4729
28.5532
28.6327
28.7112
28.7888
28.8656
28.9415
29.0165
29.0907
29.1639
29.2363
29.3078
29.3785
29.4483
29.5172
29.5853
29.6524
29.7188
29.7842
29.8488
29.9126
29.9755
30.0375
30.0987
30.1591
30.2185
30.2772
30.335
30.3919
30.4481
30.5033
30.5578
30.6114
30.6641
30.716
30.7671
30.8174
30.8668
30.9154
30.9632
31.0101
31.0563
31.1016
31.1461
31.1897
31.2326
31.2746
31.3158
31.3562
31.3958
31.4346
31.4725
31.5097
31.546
31.5816
31.6163
31.6502
31.6833
31.7157
31.7472
31.7779
31.8078
31.8369
31.8653
31.8928
31.9195
31.9454
31.9706
31.9949
32.0185
32.0412
32.0632
32.0844
32.1048
32.1244
32.1432
32.1612
32.1784
32.1949
32.2105
32.2254
32.2395
32.2528
32.2653
32.2771
32.288
32.2982
32.3076
32.3162
32.324
32.331
32.3373
32.3427
32.3474
32.3513
32.3545
32.3568
32.3584
32.3591
18.6138
18.6038
18.5843
18.5552
18.5169
18.4697
18.4139
18.3501
18.2787
18.2001
18.115
18.0238
17.927
17.8251
17.7185
17.6078
17.4933
17.3755
17.2547
17.1314
17.006
16.8787
16.7499
16.62
16.4892
16.3578
16.2261
16.0944
15.9629
15.8318
15.7014
15.5719
15.4435
15.3164
15.1908
15.0669
14.9448
14.8247
14.7068
14.5912
14.4781
14.3677
14.2599
14.155
14.0531
13.9542
13.8586
13.7662
13.6772
13.5917
13.5097
13.4313
13.3566
13.2857
13.2185
13.1552
13.0958
13.0403
12.9887
12.9412
12.8977
12.8582
12.8227
12.7913
12.764
12.7407
12.7215
12.7063
12.6952
12.6881
12.685
12.6859
12.6908
12.6995
12.7122
12.7287
12.749
12.7731
12.801
12.8325
12.8677
12.9064
12.9487
12.9944
13.0436
13.0961
13.152
13.211
13.2732
13.3386
13.407
13.4783
13.5526
13.6297
13.7096
13.7922
13.8774
13.9651
14.0554
14.1481
14.2431
14.3404
14.4399
14.5415
14.6452
14.7509
14.8585
14.968
15.0792
15.1922
15.3068
15.423
15.5407
15.6598
15.7804
15.9022
16.0253
16.1496
16.275
16.4014
16.5289
16.6574
16.7867
16.9168
17.0477
17.1794
17.3117
17.4446
17.5781
17.7121
17.8466
17.9814
18.1167
18.2523
18.3881
18.5242
18.6604
18.7968
18.9334
19.0699
19.2066
19.3432
19.4797
19.6162
19.7526
19.8888
20.0248
20.1606
20.2962
20.4315
20.5665
20.7012
20.8355
20.9695
21.103
21.2361
21.3688
21.501
21.6327
21.7639
21.8945
22.0246
22.1541
22.283
22.4113
22.539
22.666
22.7924
22.9181
23.0432
23.1675
23.2911
23.414
23.5362
23.6576
23.7783
23.8982
24.0174
24.1357
24.2533
24.37
24.486
24.6012
24.7155
24.829
24.9417
25.0535
25.1645
25.2746
25.3839
25.4923
25.5999
25.7066
25.8125
25.9174
26.0215
26.1248
26.2271
26.3286
26.4291
26.5288
26.6276
26.7256
26.8226
26.9188
27.014
27.1084
27.2019
27.2944
27.3861
27.4769
27.5668
27.6559
27.744
27.8312
27.9176
28.0031
28.0876
28.1713
28.2541
28.336
28.4171
28.4972
28.5765
28.6548
28.7323
28.809
28.8847
28.9596
29.0336
29.1067
29.179
29.2503
29.3209
29.3905
29.4593
29.5272
29.5943
29.6605
29.7258
29.7903
29.8539
29.9167
29.9786
30.0397
30.0999
30.1593
30.2178
30.2755
30.3323
30.3883
30.4435
30.4978
30.5513
30.604
30.6558
30.7068
30.7569
30.8063
30.8548
30.9025
30.9493
30.9954
31.0406
31.085
31.1285
31.1713
31.2132
31.2544
31.2947
31.3342
31.3729
31.4108
31.4479
31.4841
31.5196
31.5543
31.5881
31.6212
31.6535
31.6849
31.7156
31.7454
31.7745
31.8028
31.8302
31.8569
31.8828
31.9079
31.9322
31.9557
31.9784
32.0003
32.0214
32.0418
32.0613
32.0801
32.0981
32.1153
32.1317
32.1473
32.1622
32.1763
32.1895
32.202
32.2137
32.2247
32.2348
32.2442
32.2528
32.2606
32.2676
32.2738
32.2793
32.284
32.2879
32.291
32.2933
32.2949
32.2957
18.5869
18.5771
18.5577
18.5289
18.4909
18.444
18.3887
18.3253
18.2543
18.1762
18.0915
18.0007
17.9043
17.8028
17.6966
17.5862
17.472
17.3544
17.234
17.1109
16.9857
16.8586
16.7301
16.6003
16.4697
16.3385
16.207
16.0754
15.9441
15.8132
15.683
15.5536
15.4254
15.2984
15.173
15.0492
14.9273
14.8073
14.6896
14.5742
14.4612
14.3508
14.2432
14.1385
14.0367
13.938
13.8425
13.7502
13.6614
13.576
13.4941
13.4159
13.3413
13.2705
13.2034
13.1402
13.0809
13.0255
12.9741
12.9267
12.8833
12.8439
12.8086
12.7773
12.7501
12.7269
12.7078
12.6928
12.6817
12.6748
12.6718
12.6728
12.6777
12.6866
12.6994
12.716
12.7364
12.7606
12.7886
12.8202
12.8554
12.8943
12.9367
12.9825
13.0318
13.0844
13.1403
13.1995
13.2618
13.3272
13.3957
13.4671
13.5415
13.6187
13.6986
13.7813
13.8666
13.9544
14.0448
14.1375
14.2326
14.33
14.4296
14.5313
14.635
14.7408
14.8485
14.958
15.0693
15.1823
15.297
15.4133
15.531
15.6502
15.7708
15.8927
16.0158
16.1401
16.2656
16.3921
16.5196
16.6481
16.7775
16.9077
17.0386
17.1703
17.3026
17.4356
17.5691
17.7032
17.8376
17.9726
18.1078
18.2434
18.3793
18.5154
18.6517
18.7881
18.9246
19.0612
19.1979
19.3345
19.4711
19.6075
19.7439
19.8801
20.0162
20.152
20.2876
20.4229
20.5579
20.6926
20.8269
20.9609
21.0944
21.2275
21.3602
21.4924
21.6241
21.7552
21.8859
22.016
22.1455
22.2744
22.4027
22.5303
22.6574
22.7837
22.9094
23.0345
23.1588
23.2824
23.4053
23.5275
23.6489
23.7695
23.8894
24.0085
24.1269
24.2444
24.3612
24.4771
24.5922
24.7066
24.82
24.9327
25.0445
25.1555
25.2656
25.3749
25.4833
25.5908
25.6975
25.8033
25.9083
26.0123
26.1155
26.2179
26.3193
26.4199
26.5195
26.6183
26.7162
26.8132
26.9094
27.0046
27.0989
27.1924
27.2849
27.3766
27.4674
27.5573
27.6463
27.7344
27.8216
27.9079
27.9934
28.0779
28.1616
28.2443
28.3262
28.4072
28.4874
28.5666
28.645
28.7224
28.799
28.8748
28.9496
29.0236
29.0967
29.1689
29.2403
29.3107
29.3804
29.4491
29.517
29.5841
29.6502
29.7156
29.78
29.8436
29.9064
29.9683
30.0293
30.0895
30.1489
30.2074
30.265
30.3219
30.3778
30.433
30.4873
30.5408
30.5934
30.6452
30.6962
30.7463
30.7956
30.8441
30.8918
30.9386
30.9846
31.0298
31.0742
31.1178
31.1605
31.2025
31.2436
31.2839
31.3234
31.3621
31.3999
31.437
31.4733
31.5087
31.5434
31.5772
31.6102
31.6425
31.6739
31.7046
31.7344
31.7635
31.7917
31.8192
31.8459
31.8717
31.8968
31.9211
31.9446
31.9673
31.9892
32.0103
32.0307
32.0502
32.069
32.087
32.1042
32.1206
32.1362
32.151
32.1651
32.1783
32.1908
32.2025
32.2135
32.2236
32.233
32.2416
32.2494
32.2564
32.2626
32.2681
32.2727
32.2766
32.2798
32.2821
32.2837
32.2844
18.5561
18.5461
18.5262
18.4966
18.4577
18.4097
18.3531
18.2883
18.216
18.1366
18.0506
17.9587
17.8612
17.7587
17.6517
17.5407
17.426
17.308
17.1873
17.0641
16.9388
16.8118
16.6833
16.5537
16.4233
16.2923
16.1611
16.0298
15.8988
15.7682
15.6383
15.5093
15.3814
15.2548
15.1297
15.0063
14.8847
14.7651
14.6477
14.5326
14.42
14.31
14.2027
14.0982
13.9968
13.8984
13.8032
13.7112
13.6226
13.5375
13.4559
13.378
13.3037
13.2331
13.1663
13.1034
13.0443
12.9892
12.938
12.8908
12.8476
12.8084
12.7733
12.7422
12.7152
12.6922
12.6733
12.6584
12.6476
12.6407
12.6379
12.6391
12.6442
12.6532
12.6661
12.6828
12.7034
12.7277
12.7558
12.7875
12.8229
12.8618
12.9043
12.9502
12.9995
13.0522
13.1082
13.1675
13.2298
13.2953
13.3638
13.4353
13.5097
13.587
13.6669
13.7496
13.8349
13.9228
14.0131
14.1059
14.201
14.2984
14.3979
14.4996
14.6034
14.7091
14.8168
14.9263
15.0375
15.1505
15.2651
15.3813
15.499
15.6182
15.7387
15.8605
15.9836
16.1079
16.2332
16.3597
16.4871
16.6155
16.7448
16.8749
17.0057
17.1373
17.2696
17.4024
17.5358
17.6698
17.8041
17.9389
18.0741
18.2096
18.3453
18.4813
18.6174
18.7538
18.8902
19.0266
19.1631
19.2996
19.436
19.5724
19.7086
19.8447
19.9806
20.1163
20.2518
20.3869
20.5218
20.6563
20.7905
20.9243
21.0577
21.1906
21.3232
21.4552
21.5867
21.7177
21.8482
21.9781
22.1075
22.2362
22.3644
22.4919
22.6187
22.745
22.8705
22.9954
23.1195
23.243
23.3657
23.4877
23.609
23.7295
23.8492
23.9682
24.0864
24.2037
24.3203
24.4361
24.5511
24.6652
24.7786
24.8911
25.0027
25.1135
25.2235
25.3326
25.4409
25.5483
25.6548
25.7605
25.8653
25.9692
26.0722
26.1744
26.2757
26.3761
26.4756
26.5743
26.672
26.7689
26.8649
26.96
27.0542
27.1475
27.2399
27.3314
27.4221
27.5118
27.6007
27.6887
27.7757
27.8619
27.9472
28.0317
28.1152
28.1978
28.2796
28.3605
28.4405
28.5196
28.5978
28.6752
28.7517
28.8273
28.902
28.9758
29.0488
29.1209
29.1922
29.2626
29.3321
29.4007
29.4685
29.5354
29.6015
29.6667
29.7311
29.7946
29.8572
29.919
29.98
30.0401
30.0993
30.1577
30.2153
30.272
30.3279
30.383
30.4372
30.4906
30.5431
30.5949
30.6457
30.6958
30.745
30.7935
30.841
30.8878
30.9337
30.9789
31.0232
31.0667
31.1093
31.1512
31.1922
31.2325
31.2719
31.3105
31.3483
31.3853
31.4215
31.4569
31.4915
31.5253
31.5583
31.5905
31.6219
31.6525
31.6823
31.7113
31.7395
31.7669
31.7935
31.8193
31.8444
31.8686
31.8921
31.9147
31.9366
31.9577
31.978
31.9975
32.0163
32.0342
32.0514
32.0678
32.0834
32.0982
32.1122
32.1255
32.1379
32.1496
32.1605
32.1706
32.18
32.1886
32.1963
32.2033
32.2096
32.215
32.2197
32.2236
32.2267
32.229
32.2306
32.2314
18.5043
18.4945
18.4749
18.4459
18.4075
18.3603
18.3045
18.2407
18.1693
18.0908
18.0058
17.9147
17.8181
17.7164
17.6102
17.4998
17.3857
17.2684
17.1482
17.0255
16.9007
16.774
16.646
16.5168
16.3867
16.2561
16.1252
15.9943
15.8636
15.7333
15.6037
15.475
15.3474
15.2211
15.0963
14.9731
14.8518
14.7325
14.6154
14.5006
14.3882
14.2785
14.1714
14.0673
13.966
13.8679
13.7729
13.6812
13.5929
13.508
13.4267
13.349
13.2749
13.2046
13.138
13.0753
13.0165
12.9616
12.9106
12.8636
12.8207
12.7817
12.7468
12.716
12.6892
12.6664
12.6477
12.6331
12.6224
12.6158
12.6132
12.6146
12.6199
12.6291
12.6422
12.6592
12.68
12.7045
12.7328
12.7647
12.8003
12.8394
12.8821
12.9282
12.9778
13.0306
13.0868
13.1462
13.2088
13.2745
13.3432
13.4149
13.4894
13.5669
13.647
13.7299
13.8154
13.9034
13.9939
14.0868
14.1821
14.2796
14.3793
14.4812
14.5851
14.691
14.7988
14.9084
15.0198
15.1329
15.2477
15.364
15.4819
15.6011
15.7218
15.8437
15.9669
16.0913
16.2168
16.3433
16.4709
16.5994
16.7287
16.8589
16.9899
17.1216
17.2539
17.3868
17.5203
17.6543
17.7888
17.9237
18.0589
18.1944
18.3302
18.4663
18.6025
18.7389
18.8753
19.0119
19.1484
19.2849
19.4214
19.5578
19.6941
19.8302
19.9661
20.1019
20.2373
20.3725
20.5074
20.642
20.7762
20.91
21.0434
21.1764
21.3089
21.441
21.5725
21.7035
21.834
21.9639
22.0933
22.222
22.3502
22.4777
22.6046
22.7308
22.8563
22.9812
23.1053
23.2288
23.3515
23.4735
23.5947
23.7152
23.8349
23.9539
24.072
24.1894
24.306
24.4217
24.5367
24.6508
24.7641
24.8766
24.9882
25.099
25.209
25.318
25.4263
25.5336
25.6402
25.7458
25.8506
25.9545
26.0575
26.1596
26.2609
26.3612
26.4607
26.5593
26.6571
26.7539
26.8498
26.9449
27.0391
27.1323
27.2247
27.3162
27.4068
27.4965
27.5854
27.6733
27.7603
27.8465
27.9318
28.0162
28.0996
28.1823
28.264
28.3448
28.4248
28.5039
28.5821
28.6594
28.7358
28.8114
28.8861
28.9599
29.0328
29.1049
29.1761
29.2465
29.316
29.3846
29.4523
29.5192
29.5852
29.6504
29.7147
29.7782
29.8408
29.9026
29.9635
30.0236
30.0828
30.1412
30.1987
30.2554
30.3113
30.3663
30.4205
30.4738
30.5263
30.578
30.6289
30.6789
30.7281
30.7765
30.8241
30.8708
30.9167
30.9618
31.0061
31.0495
31.0922
31.134
31.1751
31.2153
31.2547
31.2933
31.331
31.368
31.4042
31.4396
31.4741
31.5079
31.5409
31.5731
31.6044
31.635
31.6648
31.6938
31.7219
31.7493
31.7759
31.8017
31.8268
31.851
31.8744
31.8971
31.919
31.94
31.9603
31.9798
31.9986
32.0165
32.0336
32.05
32.0656
32.0804
32.0944
32.1077
32.1201
32.1318
32.1427
32.1528
32.1622
32.1707
32.1785
32.1855
32.1917
32.1972
32.2018
32.2057
32.2088
32.2112
32.2127
32.2135
18.4461
18.4363
18.4167
18.3876
18.3492
18.3019
18.246
18.1821
18.1106
18.0321
17.947
17.8558
17.7592
17.6576
17.5514
17.4411
17.3271
17.21
17.09
16.9675
16.843
16.7167
16.5889
16.4601
16.3304
16.2002
16.0697
15.9391
15.8088
15.679
15.5498
15.4216
15.2944
15.1685
15.0442
14.9214
14.8006
14.6817
14.565
14.4506
14.3386
14.2293
14.1226
14.0188
13.918
13.8202
13.7256
13.6343
13.5464
13.4619
13.3809
13.3035
13.2298
13.1598
13.0936
13.0312
12.9727
12.9181
12.8674
12.8208
12.7781
12.7395
12.7049
12.6743
12.6478
12.6253
12.6069
12.5926
12.5822
12.5759
12.5735
12.5751
12.5807
12.5902
12.6035
12.6208
12.6418
12.6665
12.695
12.7272
12.763
12.8023
12.8452
12.8915
12.9413
12.9944
13.0508
13.1104
13.1731
13.239
13.3078
13.3797
13.4544
13.532
13.6123
13.6953
13.781
13.8691
13.9598
14.0528
14.1482
14.2459
14.3457
14.4477
14.5517
14.6577
14.7656
14.8753
14.9868
15.1
15.2148
15.3313
15.4492
15.5685
15.6892
15.8112
15.9344
16.0589
16.1844
16.311
16.4386
16.5671
16.6965
16.8267
16.9577
17.0894
17.2217
17.3547
17.4882
17.6222
17.7566
17.8915
18.0267
18.1622
18.298
18.434
18.5702
18.7065
18.843
18.9795
19.116
19.2524
19.3889
19.5252
19.6615
19.7975
19.9334
20.0691
20.2045
20.3396
20.4744
20.6089
20.7431
20.8768
21.0101
21.143
21.2755
21.4074
21.5389
21.6698
21.8002
21.9301
22.0593
22.188
22.316
22.4434
22.5702
22.6963
22.8218
22.9465
23.0706
23.1939
23.3165
23.4384
23.5596
23.6799
23.7996
23.9184
24.0364
24.1537
24.2702
24.3858
24.5007
24.6147
24.7279
24.8402
24.9518
25.0624
25.1723
25.2812
25.3893
25.4966
25.603
25.7085
25.8132
25.917
26.0199
26.1219
26.223
26.3233
26.4227
26.5212
26.6188
26.7155
26.8113
26.9063
27.0003
27.0935
27.1858
27.2772
27.3676
27.4572
27.546
27.6338
27.7207
27.8068
27.8919
27.9762
28.0596
28.1421
28.2237
28.3045
28.3843
28.4633
28.5414
28.6186
28.695
28.7704
28.845
28.9187
28.9916
29.0636
29.1347
29.2049
29.2743
29.3428
29.4105
29.4773
29.5432
29.6083
29.6726
29.7359
29.7985
29.8601
29.921
29.981
30.0401
30.0984
30.1559
30.2125
30.2682
30.3232
30.3773
30.4306
30.483
30.5346
30.5854
30.6354
30.6845
30.7328
30.7803
30.827
30.8728
30.9179
30.9621
31.0055
31.0481
31.0898
31.1308
31.1709
31.2103
31.2488
31.2866
31.3235
31.3596
31.3949
31.4294
31.4632
31.4961
31.5282
31.5595
31.5901
31.6198
31.6487
31.6769
31.7042
31.7308
31.7566
31.7815
31.8057
31.8291
31.8518
31.8736
31.8946
31.9149
31.9344
31.9531
31.971
31.9881
32.0045
32.02
32.0348
32.0488
32.062
32.0745
32.0861
32.097
32.1071
32.1164
32.125
32.1327
32.1397
32.146
32.1514
32.1561
32.1599
32.163
32.1654
32.1669
32.1677
18.3717
18.3622
18.3431
18.3146
18.2771
18.2308
18.1761
18.1134
18.0432
17.966
17.8822
17.7923
17.6969
17.5965
17.4914
17.3821
17.2691
17.1529
17.0337
16.912
16.7882
16.6625
16.5354
16.4071
16.278
16.1483
16.0183
15.8883
15.7584
15.629
15.5003
15.3725
15.2458
15.1203
14.9963
14.874
14.7536
14.6351
14.5188
14.4047
14.2932
14.1842
14.0779
13.9745
13.8741
13.7767
13.6824
13.5915
13.5039
13.4197
13.3391
13.2621
13.1887
13.119
13.0532
12.9911
12.933
12.8787
12.8284
12.7821
12.7398
12.7015
12.6672
12.637
12.6108
12.5886
12.5706
12.5565
12.5465
12.5405
12.5384
12.5404
12.5463
12.5561
12.5697
12.5873
12.6086
12.6337
12.6625
12.695
12.731
12.7707
12.8139
12.8605
12.9106
12.964
13.0206
13.0805
13.1436
13.2097
13.2789
13.351
13.4261
13.5039
13.5845
13.6678
13.7537
13.8421
13.933
14.0263
14.122
14.2199
14.32
14.4222
14.5264
14.6327
14.7408
14.8508
14.9625
15.0759
15.191
15.3076
15.4257
15.5453
15.6662
15.7884
15.9118
16.0364
16.1621
16.2889
16.4167
16.5454
16.6749
16.8053
16.9364
17.0683
17.2008
17.3339
17.4675
17.6016
17.7362
17.8712
18.0066
18.1422
18.2781
18.4142
18.5506
18.687
18.8235
18.9601
19.0967
19.2333
19.3698
19.5062
19.6425
19.7787
19.9146
20.0504
20.1858
20.321
20.4559
20.5905
20.7247
20.8585
20.9918
21.1248
21.2573
21.3893
21.5208
21.6517
21.7822
21.912
22.0413
22.17
22.2981
22.4255
22.5523
22.6784
22.8039
22.9286
23.0527
23.176
23.2986
23.4205
23.5417
23.662
23.7817
23.9005
24.0185
24.1358
24.2522
24.3679
24.4827
24.5967
24.7099
24.8222
24.9337
25.0444
25.1542
25.2631
25.3712
25.4784
25.5848
25.6903
25.7949
25.8987
26.0015
26.1035
26.2047
26.3049
26.4042
26.5027
26.6003
26.6969
26.7927
26.8876
26.9817
27.0748
27.167
27.2584
27.3488
27.4384
27.5271
27.6149
27.7017
27.7878
27.8729
27.9571
28.0405
28.1229
28.2045
28.2852
28.365
28.4439
28.522
28.5992
28.6755
28.7509
28.8254
28.8991
28.9719
29.0439
29.1149
29.1851
29.2545
29.3229
29.3906
29.4573
29.5232
29.5883
29.6525
29.7158
29.7783
29.8399
29.9007
29.9607
30.0198
30.078
30.1354
30.192
30.2477
30.3027
30.3567
30.41
30.4624
30.5139
30.5647
30.6146
30.6637
30.712
30.7594
30.8061
30.8519
30.8969
30.9411
30.9844
31.027
31.0687
31.1097
31.1498
31.1891
31.2276
31.2653
31.3022
31.3383
31.3736
31.4081
31.4418
31.4747
31.5068
31.5381
31.5686
31.5983
31.6272
31.6553
31.6826
31.7092
31.7349
31.7599
31.7841
31.8074
31.83
31.8519
31.8729
31.8931
31.9126
31.9313
31.9492
31.9663
31.9826
31.9982
32.0129
32.0269
32.0401
32.0526
32.0642
32.0751
32.0852
32.0945
32.103
32.1108
32.1178
32.124
32.1294
32.1341
32.138
32.1411
32.1434
32.1449
32.1457
18.2901
18.2807
18.2618
18.2337
18.1966
18.1508
18.0967
18.0347
17.9652
17.8886
17.8056
17.7165
17.6218
17.522
17.4176
17.3091
17.1968
17.0811
16.9626
16.8415
16.7183
16.5933
16.4667
16.339
16.2105
16.0813
15.9519
15.8224
15.6931
15.5643
15.4361
15.3088
15.1826
15.0577
14.9342
14.8124
14.6925
14.5745
14.4587
14.3452
14.2341
14.1256
14.0198
13.9169
13.8169
13.72
13.6262
13.5357
13.4486
13.3649
13.2847
13.2081
13.1351
13.0659
13.0005
12.9388
12.8811
12.8273
12.7774
12.7314
12.6895
12.6516
12.6177
12.5879
12.5621
12.5404
12.5226
12.509
12.4993
12.4937
12.492
12.4943
12.5006
12.5108
12.5248
12.5427
12.5643
12.5898
12.6189
12.6517
12.6882
12.7282
12.7717
12.8186
12.869
12.9227
12.9797
13.0399
13.1033
13.1697
13.2392
13.3116
13.3869
13.465
13.5459
13.6295
13.7156
13.8043
13.8955
13.9891
14.085
14.1831
14.2834
14.3859
14.4904
14.5968
14.7052
14.8153
14.9273
15.0409
15.1562
15.273
15.3913
15.511
15.6321
15.7545
15.8781
16.0028
16.1287
16.2556
16.3835
16.5123
16.642
16.7725
16.9038
17.0358
17.1684
17.3016
17.4353
17.5695
17.7042
17.8393
17.9747
18.1104
18.2464
18.3826
18.519
18.6555
18.7921
18.9287
19.0653
19.202
19.3385
19.475
19.6113
19.7475
19.8834
20.0192
20.1547
20.2899
20.4248
20.5593
20.6935
20.8273
20.9607
21.0936
21.2261
21.358
21.4895
21.6205
21.7509
21.8807
22.0099
22.1386
22.2666
22.394
22.5208
22.6468
22.7723
22.897
23.021
23.1443
23.2668
23.3887
23.5097
23.63
23.7496
23.8684
23.9863
24.1035
24.2199
24.3355
24.4502
24.5642
24.6773
24.7895
24.9009
25.0115
25.1212
25.2301
25.3381
25.4453
25.5516
25.657
25.7615
25.8652
25.968
26.0699
26.1709
26.2711
26.3703
26.4687
26.5662
26.6628
26.7585
26.8533
26.9472
27.0403
27.1324
27.2237
27.314
27.4035
27.4921
27.5798
27.6666
27.7525
27.8375
27.9217
28.005
28.0873
28.1688
28.2494
28.3292
28.408
28.486
28.5631
28.6393
28.7146
28.7891
28.8627
28.9354
29.0072
29.0782
29.1484
29.2176
29.286
29.3536
29.4202
29.4861
29.551
29.6151
29.6784
29.7408
29.8024
29.8631
29.9229
29.982
30.0402
30.0975
30.154
30.2097
30.2645
30.3185
30.3717
30.424
30.4755
30.5262
30.5761
30.6251
30.6733
30.7207
30.7673
30.813
30.858
30.9021
30.9454
30.9879
31.0296
31.0705
31.1105
31.1498
31.1883
31.2259
31.2628
31.2988
31.334
31.3685
31.4021
31.435
31.467
31.4983
31.5288
31.5584
31.5873
31.6154
31.6427
31.6692
31.6949
31.7198
31.744
31.7673
31.7899
31.8117
31.8327
31.8529
31.8723
31.891
31.9088
31.9259
31.9422
31.9578
31.9725
31.9865
31.9997
32.0121
32.0237
32.0346
32.0447
32.054
32.0625
32.0702
32.0772
32.0834
32.0888
32.0935
32.0974
32.1005
32.1028
32.1043
32.1051
18.1954
18.1862
18.1679
18.1405
18.1044
18.0598
18.007
17.9464
17.8784
17.8035
17.722
17.6344
17.5413
17.443
17.34
17.2328
17.1218
17.0073
16.8899
16.7698
16.6476
16.5234
16.3977
16.2708
16.143
16.0146
15.8858
15.757
15.6283
15.5001
15.3725
15.2457
15.1201
14.9957
14.8728
14.7516
14.6321
14.5147
14.3994
14.2864
14.1758
14.0678
13.9625
13.86
13.7605
13.6641
13.5708
13.4807
13.394
13.3108
13.2311
13.1549
13.0824
13.0137
12.9487
12.8875
12.8302
12.7768
12.7273
12.6819
12.6404
12.6029
12.5695
12.5401
12.5147
12.4934
12.4761
12.4629
12.4537
12.4484
12.4472
12.45
12.4566
12.4672
12.4817
12.5
12.5221
12.5479
12.5775
12.6107
12.6476
12.688
12.7319
12.7793
12.8301
12.8842
12.9416
13.0022
13.066
13.1328
13.2027
13.2755
13.3512
13.4297
13.5109
13.5949
13.6814
13.7705
13.862
13.9559
14.0522
14.1507
14.2514
14.3541
14.459
14.5657
14.6744
14.7849
14.8972
15.0111
15.1267
15.2438
15.3624
15.4824
15.6038
15.7264
15.8503
15.9753
16.1015
16.2287
16.3568
16.4859
16.6158
16.7466
16.8781
17.0102
17.1431
17.2765
17.4104
17.5449
17.6798
17.815
17.9506
18.0865
18.2227
18.3591
18.4956
18.6322
18.769
18.9058
19.0426
19.1793
19.316
19.4526
19.5891
19.7254
19.8615
19.9973
20.1329
20.2682
20.4032
20.5378
20.6721
20.806
20.9394
21.0725
21.205
21.337
21.4686
21.5996
21.7301
21.8599
21.9892
22.1179
22.246
22.3735
22.5002
22.6264
22.7518
22.8765
23.0006
23.1239
23.2465
23.3683
23.4894
23.6098
23.7293
23.8481
23.9661
24.0833
24.1996
24.3152
24.43
24.5439
24.657
24.7692
24.8806
24.9912
25.1009
25.2098
25.3178
25.4249
25.5312
25.6366
25.7411
25.8447
25.9475
26.0494
26.1504
26.2505
26.3497
26.448
26.5455
26.6421
26.7377
26.8325
26.9264
27.0194
27.1115
27.2027
27.2931
27.3825
27.4711
27.5587
27.6455
27.7314
27.8163
27.9004
27.9837
28.066
28.1474
28.228
28.3077
28.3865
28.4644
28.5414
28.6176
28.6929
28.7673
28.8409
28.9135
28.9854
29.0563
29.1264
29.1956
29.2639
29.3314
29.3981
29.4638
29.5288
29.5928
29.656
29.7184
29.7799
29.8406
29.9004
29.9594
30.0175
30.0748
30.1313
30.1869
30.2417
30.2957
30.3488
30.4011
30.4526
30.5032
30.553
30.602
30.6502
30.6976
30.7441
30.7898
30.8347
30.8788
30.9221
30.9645
31.0062
31.047
31.087
31.1263
31.1647
31.2023
31.2391
31.2751
31.3103
31.3448
31.3784
31.4112
31.4432
31.4744
31.5049
31.5345
31.5634
31.5914
31.6187
31.6452
31.6709
31.6958
31.7199
31.7432
31.7658
31.7875
31.8085
31.8287
31.8481
31.8668
31.8846
31.9017
31.918
31.9335
31.9482
31.9622
31.9754
31.9878
31.9994
32.0102
32.0203
32.0296
32.0381
32.0459
32.0528
32.059
32.0644
32.0691
32.073
32.0761
32.0784
32.0799
32.0807
18.0931
18.0841
18.0662
18.0394
18.004
17.9602
17.9084
17.8489
17.782
17.7083
17.628
17.5417
17.4498
17.3527
17.2509
17.1448
17.0349
16.9215
16.805
16.686
16.5646
16.4414
16.3165
16.1904
16.0634
15.9357
15.8077
15.6795
15.5516
15.424
15.2971
15.171
15.046
14.9223
14.8
14.6794
14.5605
14.4437
14.329
14.2165
14.1066
13.9991
13.8944
13.7925
13.6936
13.5977
13.5049
13.4154
13.3293
13.2466
13.1674
13.0917
13.0198
12.9515
12.887
12.8264
12.7696
12.7167
12.6678
12.6228
12.5818
12.5448
12.5119
12.483
12.4581
12.4373
12.4205
12.4077
12.399
12.3943
12.3935
12.3967
12.4039
12.4149
12.4299
12.4486
12.4712
12.4975
12.5275
12.5612
12.5985
12.6394
12.6838
12.7316
12.7828
12.8374
12.8952
12.9562
13.0204
13.0877
13.1579
13.2312
13.3073
13.3862
13.4678
13.5522
13.6391
13.7286
13.8205
13.9148
14.0114
14.1102
14.2113
14.3144
14.4196
14.5267
14.6357
14.7465
14.8591
14.9734
15.0892
15.2067
15.3256
15.4459
15.5675
15.6904
15.8146
15.9399
16.0663
16.1937
16.3221
16.4514
16.5816
16.7126
16.8443
16.9767
17.1097
17.2433
17.3775
17.5121
17.6472
17.7826
17.9184
18.0544
18.1908
18.3273
18.4639
18.6007
18.7376
18.8745
19.0114
19.1483
19.2851
19.4218
19.5584
19.6948
19.8309
19.9669
20.1026
20.238
20.373
20.5077
20.6421
20.776
20.9095
21.0425
21.1751
21.3072
21.4388
21.5698
21.7003
21.8302
21.9596
22.0883
22.2164
22.3438
22.4706
22.5967
22.7222
22.8469
22.9709
23.0942
23.2168
23.3386
23.4597
23.58
23.6995
23.8183
23.9363
24.0534
24.1698
24.2853
24.4
24.5139
24.6269
24.7392
24.8505
24.961
25.0707
25.1795
25.2875
25.3945
25.5007
25.6061
25.7105
25.8141
25.9168
26.0187
26.1196
26.2196
26.3188
26.4171
26.5145
26.611
26.7066
26.8013
26.8951
26.988
27.0801
27.1712
27.2615
27.3509
27.4393
27.5269
27.6136
27.6994
27.7843
27.8684
27.9515
28.0338
28.1151
28.1956
28.2752
28.354
28.4318
28.5088
28.5849
28.6601
28.7344
28.8079
28.8805
28.9522
29.0231
29.0931
29.1623
29.2305
29.298
29.3645
29.4302
29.4951
29.5591
29.6222
29.6845
29.746
29.8066
29.8663
29.9252
29.9833
30.0406
30.097
30.1525
30.2072
30.2611
30.3142
30.3664
30.4178
30.4684
30.5182
30.5671
30.6152
30.6625
30.709
30.7547
30.7995
30.8435
30.8868
30.9292
30.9708
31.0116
31.0515
31.0907
31.1291
31.1667
31.2034
31.2394
31.2746
31.3089
31.3425
31.3753
31.4073
31.4385
31.4689
31.4985
31.5273
31.5553
31.5825
31.609
31.6346
31.6595
31.6836
31.7069
31.7294
31.7511
31.7721
31.7923
31.8116
31.8303
31.8481
31.8651
31.8814
31.8969
31.9116
31.9255
31.9387
31.9511
31.9627
31.9735
31.9836
31.9929
32.0014
32.0091
32.0161
32.0223
32.0277
32.0323
32.0362
32.0393
32.0416
32.0431
32.0439
17.9799
17.9712
17.9537
17.9277
17.8933
17.8508
17.8004
17.7424
17.6771
17.6051
17.5265
17.442
17.3518
17.2564
17.1563
17.0518
16.9433
16.8314
16.7163
16.5985
16.4784
16.3563
16.2325
16.1074
15.9813
15.8545
15.7273
15.6
15.4728
15.346
15.2198
15.0945
14.9702
14.8471
14.7255
14.6055
14.4873
14.3711
14.257
14.1452
14.0358
13.929
13.8248
13.7235
13.6251
13.5298
13.4376
13.3487
13.2631
13.181
13.1024
13.0273
12.9559
12.8882
12.8242
12.7641
12.7079
12.6555
12.6071
12.5627
12.5223
12.4858
12.4534
12.4251
12.4007
12.3804
12.3642
12.352
12.3438
12.3396
12.3394
12.3431
12.3508
12.3624
12.3779
12.3972
12.4203
12.4471
12.4777
12.5119
12.5497
12.5911
12.636
12.6844
12.7361
12.7912
12.8495
12.9111
12.9757
13.0435
13.1143
13.188
13.2646
13.344
13.4262
13.511
13.5984
13.6883
13.7807
13.8755
13.9725
14.0719
14.1733
14.2769
14.3825
14.4901
14.5995
14.7108
14.8238
14.9384
15.0547
15.1725
15.2918
15.4125
15.5345
15.6578
15.7823
15.908
16.0347
16.1625
16.2912
16.4209
16.5514
16.6826
16.8147
16.9474
17.0807
17.2146
17.349
17.4839
17.6192
17.7549
17.891
18.0273
18.1639
18.3006
18.4375
18.5745
18.7116
18.8487
18.9858
19.1229
19.2599
19.3968
19.5335
19.6701
19.8064
19.9425
20.0784
20.2139
20.3491
20.484
20.6184
20.7525
20.8861
21.0193
21.152
21.2842
21.4159
21.547
21.6776
21.8076
21.937
22.0658
22.1939
22.3215
22.4483
22.5745
22.7
22.8248
22.9489
23.0722
23.1948
23.3167
23.4378
23.5582
23.6777
23.7965
23.9145
24.0317
24.148
24.2636
24.3783
24.4922
24.6053
24.7175
24.8289
24.9394
25.049
25.1578
25.2658
25.3729
25.4791
25.5844
25.6888
25.7924
25.8951
25.9969
26.0978
26.1978
26.297
26.3952
26.4926
26.5891
26.6846
26.7793
26.8731
26.966
27.058
27.1491
27.2393
27.3287
27.4171
27.5047
27.5913
27.6771
27.7619
27.8459
27.929
28.0113
28.0926
28.173
28.2526
28.3313
28.4091
28.486
28.562
28.6372
28.7115
28.785
28.8575
28.9292
29
29.07
29.1391
29.2073
29.2747
29.3412
29.4068
29.4717
29.5356
29.5987
29.6609
29.7224
29.7829
29.8426
29.9015
29.9595
30.0167
30.0731
30.1286
30.1833
30.2371
30.2901
30.3423
30.3937
30.4442
30.4939
30.5428
30.5909
30.6382
30.6846
30.7302
30.775
30.819
30.8622
30.9046
30.9461
30.9869
31.0268
31.066
31.1043
31.1418
31.1786
31.2145
31.2496
31.284
31.3175
31.3502
31.3822
31.4134
31.4437
31.4733
31.5021
31.5301
31.5573
31.5837
31.6093
31.6342
31.6582
31.6815
31.704
31.7257
31.7467
31.7668
31.7862
31.8048
31.8226
31.8396
31.8559
31.8713
31.886
31.9
31.9131
31.9255
31.9371
31.9479
31.9579
31.9672
31.9757
31.9834
31.9904
31.9966
32.002
32.0066
32.0105
32.0136
32.0159
32.0174
32.0182
17.8591
17.8506
17.8336
17.8083
17.7747
17.7332
17.6839
17.6272
17.5633
17.4927
17.4157
17.3327
17.244
17.1502
17.0516
16.9485
16.8415
16.731
16.6172
16.5007
16.3818
16.2608
16.1381
16.014
15.8889
15.7631
15.6368
15.5104
15.3841
15.2581
15.1327
15.0081
14.8846
14.7623
14.6414
14.5221
14.4046
14.2891
14.1757
14.0646
13.9559
13.8497
13.7462
13.6456
13.5479
13.4532
13.3617
13.2734
13.1884
13.1069
13.0289
12.9544
12.8837
12.8166
12.7532
12.6937
12.6381
12.5864
12.5386
12.4947
12.4549
12.4191
12.3872
12.3595
12.3357
12.316
12.3004
12.2888
12.2812
12.2776
12.2779
12.2823
12.2906
12.3027
12.3188
12.3387
12.3623
12.3898
12.4209
12.4557
12.4941
12.536
12.5815
12.6304
12.6827
12.7383
12.7972
12.8593
12.9245
12.9929
13.0642
13.1384
13.2156
13.2955
13.3782
13.4635
13.5514
13.6418
13.7347
13.83
13.9275
14.0273
14.1293
14.2333
14.3394
14.4474
14.5573
14.669
14.7824
14.8975
15.0142
15.1324
15.2521
15.3732
15.4956
15.6193
15.7442
15.8702
15.9973
16.1254
16.2545
16.3845
16.5153
16.6469
16.7792
16.9122
17.0459
17.1801
17.3148
17.4499
17.5855
17.7215
17.8578
17.9944
18.1311
18.2681
18.4053
18.5425
18.6798
18.8171
18.9544
19.0917
19.2289
19.3659
19.5028
19.6396
19.7761
19.9123
20.0483
20.184
20.3193
20.4543
20.5888
20.723
20.8568
20.99
21.1228
21.2551
21.3869
21.5181
21.6488
21.7788
21.9083
22.0372
22.1654
22.293
22.4199
22.5461
22.6716