/*--------------------------------*- C++ -*----------------------------------*\
| =========                 |                                                 |
| \\      /  F ield         | OpenFOAM: The Open Source CFD Toolbox           |
|  \\    /   O peration     | Version:  2212                                  |
|   \\  /    A nd           | Website:  www.openfoam.com                      |
|    \\/     M anipulation  |                                                 |
\*---------------------------------------------------------------------------*/
FoamFile
{
    version     2.0;
    format      ascii;
    arch        "LSB;label=32;scalar=64";
    class       volScalarField;
    location    "330";
    object      p_rgh_0;
}
// * * * * * * * * * * * * * * * * * * * * * * * * * * * * * * * * * * * * * //

dimensions      [1 -1 -2 0 0 0 0];

internalField   nonuniform List<scalar> 
204800
(
18.5873
18.578
18.5597
18.5326
18.4968
18.4524
18.3998
18.3394
18.2713
18.1961
18.1141
18.0258
17.9316
17.832
17.7275
17.6184
17.5053
17.3887
17.2688
17.1463
17.0214
16.8945
16.766
16.6362
16.5055
16.3742
16.2425
16.1108
15.9792
15.8481
15.7176
15.5881
15.4596
15.3324
15.2068
15.0828
14.9606
14.8405
14.7226
14.607
14.4939
14.3834
14.2756
14.1707
14.0688
13.97
13.8744
13.782
13.6931
13.6076
13.5257
13.4474
13.3728
13.302
13.2349
13.1717
13.1124
13.057
13.0056
12.9582
12.9149
12.8755
12.8403
12.8091
12.7819
12.7589
12.7399
12.7249
12.714
12.7072
12.7043
12.7054
12.7105
12.7196
12.7325
12.7493
12.7699
12.7943
12.8225
12.8543
12.8898
12.9288
12.9714
13.0175
13.067
13.1199
13.1761
13.2355
13.2981
13.3638
13.4325
13.5042
13.5789
13.6564
13.7366
13.8196
13.9052
13.9933
14.084
14.177
14.2724
14.3701
14.47
14.5721
14.6762
14.7823
14.8903
15.0002
15.1118
15.2252
15.3402
15.4568
15.5749
15.6944
15.8154
15.9376
16.0611
16.1858
16.3116
16.4385
16.5664
16.6952
16.8249
16.9555
17.0868
17.2188
17.3515
17.4848
17.6187
17.7531
17.8879
18.0232
18.1588
18.2948
18.431
18.5674
18.7041
18.8408
18.9777
19.1146
19.2516
19.3886
19.5255
19.6623
19.799
19.9355
20.0719
20.2081
20.344
20.4796
20.6149
20.7499
20.8845
21.0188
21.1526
21.286
21.419
21.5514
21.6834
21.8149
21.9458
22.0761
22.2059
22.3351
22.4636
22.5916
22.7188
22.8455
22.9714
23.0967
23.2212
23.3451
23.4682
23.5906
23.7122
23.8331
23.9532
24.0725
24.1911
24.3088
24.4258
24.5419
24.6572
24.7717
24.8854
24.9982
25.1102
25.2214
25.3316
25.4411
25.5496
25.6574
25.7642
25.8702
25.9752
26.0795
26.1828
26.2852
26.3868
26.4875
26.5873
26.6862
26.7842
26.8813
26.9776
27.0729
27.1673
27.2609
27.3536
27.4453
27.5362
27.6262
27.7152
27.8034
27.8907
27.9771
28.0626
28.1472
28.231
28.3138
28.3958
28.4768
28.557
28.6363
28.7147
28.7922
28.8689
28.9446
29.0195
29.0935
29.1667
29.2389
29.3103
29.3808
29.4505
29.5193
29.5872
29.6543
29.7205
29.7858
29.8503
29.9139
29.9767
30.0386
30.0996
30.1599
30.2192
30.2777
30.3354
30.3922
30.4482
30.5034
30.5577
30.6112
30.6638
30.7156
30.7666
30.8167
30.866
30.9145
30.9622
31.009
31.0551
31.1003
31.1446
31.1882
31.2309
31.2728
31.314
31.3543
31.3937
31.4324
31.4703
31.5073
31.5436
31.579
31.6137
31.6475
31.6806
31.7128
31.7442
31.7749
31.8047
31.8338
31.862
31.8895
31.9161
31.942
31.967
31.9913
32.0148
32.0375
32.0594
32.0805
32.1009
32.1204
32.1392
32.1571
32.1743
32.1907
32.2064
32.2212
32.2352
32.2485
32.261
32.2727
32.2836
32.2937
32.3031
32.3117
32.3195
32.3265
32.3327
32.3382
32.3429
32.3468
32.3499
32.3522
32.3538
32.3546
18.5891
18.5792
18.5597
18.5306
18.4924
18.4452
18.3895
18.3258
18.2544
18.176
18.091
17.9999
17.9032
17.8014
17.695
17.5844
17.47
17.3523
17.2317
17.1086
16.9833
16.8562
16.7276
16.5979
16.4672
16.336
16.2045
16.073
15.9417
15.8108
15.6806
15.5514
15.4232
15.2963
15.1709
15.0472
14.9254
14.8055
14.6879
14.5725
14.4597
14.3494
14.2419
14.1373
14.0356
13.9371
13.8417
13.7496
13.6609
13.5756
13.4939
13.4158
13.3414
13.2707
13.2038
13.1408
13.0817
13.0264
12.9752
12.9279
12.8847
12.8455
12.8103
12.7792
12.7522
12.7292
12.7103
12.6955
12.6846
12.6778
12.675
12.6762
12.6814
12.6904
12.7034
12.7202
12.7408
12.7652
12.7934
12.8252
12.8607
12.8997
12.9423
12.9883
13.0378
13.0906
13.1467
13.206
13.2686
13.3342
13.4029
13.4745
13.549
13.6264
13.7066
13.7894
13.8749
13.9629
14.0535
14.1464
14.2417
14.3392
14.439
14.5409
14.6448
14.7507
14.8586
14.9683
15.0798
15.193
15.3078
15.4242
15.5422
15.6615
15.7823
15.9043
16.0276
16.1521
16.2777
16.4044
16.532
16.6607
16.7902
16.9205
17.0516
17.1834
17.3159
17.449
17.5826
17.7168
17.8514
17.9865
18.1218
18.2576
18.3935
18.5297
18.6661
18.8027
18.9393
19.076
19.2127
19.3495
19.4861
19.6227
19.7592
19.8955
20.0316
20.1675
20.3032
20.4386
20.5737
20.7084
20.8428
20.9768
21.1104
21.2436
21.3763
21.5085
21.6402
21.7715
21.9021
22.0322
22.1618
22.2907
22.419
22.5467
22.6738
22.8002
22.9259
23.0509
23.1753
23.2989
23.4218
23.5439
23.6653
23.786
23.9059
24.025
24.1433
24.2609
24.3776
24.4935
24.6086
24.7229
24.8363
24.949
25.0607
25.1717
25.2817
25.391
25.4993
25.6068
25.7135
25.8192
25.9241
26.0281
26.1313
26.2335
26.3349
26.4354
26.535
26.6337
26.7316
26.8285
26.9245
27.0197
27.114
27.2073
27.2998
27.3914
27.4821
27.5719
27.6608
27.7488
27.8359
27.9222
28.0075
28.092
28.1755
28.2582
28.34
28.4209
28.5009
28.5801
28.6583
28.7357
28.8122
28.8878
28.9626
29.0364
29.1094
29.1816
29.2528
29.3232
29.3927
29.4614
29.5292
29.5961
29.6622
29.7274
29.7917
29.8552
29.9179
29.9797
30.0406
30.1007
30.1599
30.2183
30.2759
30.3326
30.3885
30.4435
30.4978
30.5511
30.6037
30.6554
30.7062
30.7563
30.8055
30.8539
30.9015
30.9482
30.9941
31.0392
31.0835
31.127
31.1697
31.2115
31.2525
31.2928
31.3322
31.3708
31.4086
31.4455
31.4817
31.5171
31.5517
31.5854
31.6184
31.6506
31.682
31.7125
31.7423
31.7713
31.7995
31.8269
31.8535
31.8793
31.9043
31.9286
31.952
31.9747
31.9965
32.0176
32.0379
32.0574
32.0761
32.0941
32.1112
32.1276
32.1432
32.158
32.172
32.1852
32.1977
32.2094
32.2203
32.2304
32.2397
32.2483
32.2561
32.2631
32.2693
32.2748
32.2794
32.2833
32.2864
32.2888
32.2903
32.2911
18.5622
18.5525
18.5331
18.5043
18.4664
18.4196
18.3643
18.301
18.2301
18.1521
18.0675
17.9768
17.8805
17.7791
17.673
17.5628
17.4487
17.3313
17.211
17.0881
16.963
16.8361
16.7078
16.5782
16.4478
16.3168
16.1854
16.0541
15.9229
15.7922
15.6622
15.5331
15.405
15.2783
15.1531
15.0295
14.9078
14.7881
14.6706
14.5555
14.4427
14.3326
14.2253
14.1208
14.0192
13.9208
13.8255
13.7336
13.645
13.5599
13.4783
13.4003
13.326
13.2555
13.1887
13.1258
13.0668
13.0117
12.9606
12.9134
12.8703
12.8312
12.7962
12.7652
12.7383
12.7154
12.6966
12.6819
12.6712
12.6645
12.6618
12.6631
12.6683
12.6775
12.6906
12.7075
12.7282
12.7527
12.781
12.8129
12.8484
12.8876
12.9302
12.9764
13.0259
13.0788
13.1351
13.1945
13.2571
13.3228
13.3916
13.4633
13.5379
13.6154
13.6956
13.7786
13.8641
13.9522
14.0428
14.1359
14.2312
14.3288
14.4287
14.5306
14.6346
14.7406
14.8486
14.9583
15.0699
15.1831
15.298
15.4145
15.5325
15.6519
15.7727
15.8948
16.0181
16.1427
16.2683
16.395
16.5228
16.6514
16.781
16.9113
17.0425
17.1743
17.3069
17.44
17.5737
17.7079
17.8425
17.9776
18.113
18.2487
18.3847
18.5209
18.6574
18.7939
18.9306
19.0673
19.204
19.3408
19.4775
19.614
19.7505
19.8868
20.023
20.1589
20.2946
20.43
20.565
20.6998
20.8342
20.9682
21.1018
21.235
21.3677
21.4999
21.6316
21.7628
21.8935
22.0236
22.1531
22.2821
22.4104
22.5381
22.6651
22.7915
22.9172
23.0422
23.1666
23.2902
23.413
23.5352
23.6566
23.7772
23.8971
24.0162
24.1345
24.252
24.3687
24.4846
24.5997
24.714
24.8274
24.94
25.0517
25.1626
25.2727
25.3819
25.4903
25.5977
25.7044
25.8101
25.915
26.019
26.1221
26.2243
26.3257
26.4261
26.5257
26.6244
26.7222
26.8191
26.9151
27.0103
27.1045
27.1979
27.2903
27.3819
27.4725
27.5623
27.6512
27.7392
27.8263
27.9125
27.9978
28.0823
28.1658
28.2484
28.3302
28.4111
28.4911
28.5702
28.6484
28.7258
28.8023
28.8779
28.9526
29.0264
29.0994
29.1715
29.2427
29.3131
29.3826
29.4512
29.519
29.5859
29.6519
29.7171
29.7815
29.8449
29.9076
29.9693
30.0302
30.0903
30.1495
30.2079
30.2655
30.3222
30.378
30.4331
30.4872
30.5406
30.5931
30.6448
30.6956
30.7457
30.7949
30.8432
30.8908
30.9375
30.9834
31.0285
31.0728
31.1163
31.1589
31.2007
31.2417
31.2819
31.3213
31.3599
31.3977
31.4347
31.4708
31.5062
31.5408
31.5745
31.6075
31.6396
31.671
31.7016
31.7313
31.7603
31.7885
31.8159
31.8425
31.8683
31.8933
31.9175
31.9409
31.9636
31.9854
32.0065
32.0268
32.0463
32.065
32.0829
32.1001
32.1164
32.132
32.1468
32.1608
32.1741
32.1865
32.1982
32.2091
32.2192
32.2285
32.2371
32.2449
32.2519
32.2581
32.2635
32.2682
32.2721
32.2752
32.2775
32.2791
32.2799
18.5315
18.5215
18.5017
18.4721
18.4332
18.3852
18.3287
18.2641
18.1918
18.1125
18.0267
17.9348
17.8374
17.7351
17.6282
17.5173
17.4027
17.2849
17.1643
17.0413
16.9162
16.7893
16.661
16.5316
16.4014
16.2706
16.1396
16.0085
15.8777
15.7473
15.6176
15.4888
15.3611
15.2348
15.1099
14.9867
14.8653
14.746
14.6288
14.514
14.4016
14.2918
14.1848
14.0806
13.9794
13.8812
13.7863
13.6946
13.6063
13.5215
13.4402
13.3625
13.2884
13.2181
13.1516
13.089
13.0302
12.9753
12.9244
12.8775
12.8346
12.7957
12.7609
12.7301
12.7034
12.6807
12.6621
12.6475
12.637
12.6305
12.6279
12.6294
12.6348
12.6441
12.6573
12.6743
12.6952
12.7198
12.7482
12.7802
12.8159
12.8551
12.8979
12.9441
12.9937
13.0467
13.103
13.1625
13.2252
13.2909
13.3597
13.4315
13.5062
13.5837
13.6639
13.7469
13.8325
13.9206
14.0112
14.1042
14.1996
14.2972
14.397
14.499
14.603
14.7089
14.8168
14.9266
15.0381
15.1513
15.2662
15.3826
15.5005
15.6199
15.7406
15.8626
15.9859
16.1104
16.236
16.3626
16.4902
16.6188
16.7483
16.8785
17.0096
17.1414
17.2738
17.4068
17.5404
17.6745
17.809
17.9439
18.0792
18.2149
18.3507
18.4869
18.6231
18.7596
18.8961
19.0327
19.1693
19.3059
19.4424
19.5789
19.7152
19.8514
19.9874
20.1232
20.2587
20.3939
20.5289
20.6635
20.7977
20.9316
21.065
21.1981
21.3306
21.4627
21.5943
21.7253
21.8558
21.9858
22.1151
22.2439
22.3721
22.4996
22.6265
22.7527
22.8783
23.0031
23.1273
23.2507
23.3735
23.4954
23.6167
23.7372
23.8569
23.9758
24.0939
24.2113
24.3279
24.4436
24.5585
24.6726
24.7859
24.8983
25.0099
25.1207
25.2306
25.3397
25.4478
25.5552
25.6616
25.7672
25.8719
25.9758
26.0788
26.1808
26.282
26.3824
26.4818
26.5803
26.678
26.7748
26.8707
26.9656
27.0597
27.1529
27.2453
27.3367
27.4272
27.5169
27.6056
27.6935
27.7804
27.8665
27.9517
28.036
28.1194
28.2019
28.2836
28.3643
28.4442
28.5232
28.6013
28.6785
28.7549
28.8304
28.905
28.9787
29.0515
29.1235
29.1946
29.2649
29.3343
29.4028
29.4705
29.5373
29.6032
29.6683
29.7325
29.7959
29.8584
29.9201
29.9809
30.0409
30.1
30.1583
30.2157
30.2724
30.3281
30.3831
30.4371
30.4904
30.5428
30.5944
30.6452
30.6952
30.7443
30.7926
30.8401
30.8867
30.9325
30.9776
31.0217
31.0651
31.1077
31.1495
31.1904
31.2305
31.2699
31.3084
31.3461
31.383
31.4191
31.4544
31.4889
31.5226
31.5555
31.5876
31.619
31.6495
31.6792
31.7081
31.7362
31.7636
31.7901
31.8159
31.8409
31.865
31.8884
31.911
31.9329
31.9539
31.9741
31.9936
32.0123
32.0302
32.0473
32.0636
32.0792
32.094
32.108
32.1212
32.1336
32.1453
32.1561
32.1662
32.1756
32.1841
32.1919
32.1989
32.2051
32.2105
32.2152
32.219
32.2221
32.2245
32.226
32.2268
18.4797
18.4699
18.4504
18.4213
18.383
18.3359
18.2802
18.2164
18.1451
18.0667
17.9818
17.8908
17.7943
17.6928
17.5867
17.4764
17.3625
17.2453
17.1252
17.0027
16.878
16.7516
16.6237
16.4947
16.3648
16.2344
16.1037
15.9729
15.8424
15.7124
15.583
15.4545
15.3271
15.201
15.0764
14.9535
14.8325
14.7134
14.5965
14.4819
14.3698
14.2603
14.1535
14.0496
13.9486
13.8507
13.756
13.6646
13.5766
13.492
13.4109
13.3335
13.2597
13.1896
13.1233
13.0609
13.0024
12.9478
12.8971
12.8504
12.8077
12.7691
12.7345
12.7039
12.6774
12.6549
12.6366
12.6222
12.6119
12.6056
12.6033
12.6049
12.6105
12.6201
12.6335
12.6507
12.6718
12.6966
12.7252
12.7574
12.7933
12.8327
12.8757
12.9221
12.9719
13.0251
13.0816
13.1413
13.2041
13.2701
13.3391
13.411
13.4859
13.5636
13.644
13.7272
13.8129
13.9012
13.992
14.0852
14.1807
14.2785
14.3784
14.4805
14.5847
14.6908
14.7988
14.9087
15.0204
15.1337
15.2487
15.3653
15.4833
15.6028
15.7237
15.8458
15.9692
16.0938
16.2195
16.3463
16.474
16.6027
16.7322
16.8626
16.9937
17.1256
17.2581
17.3912
17.5249
17.659
17.7937
17.9287
18.064
18.1997
18.3357
18.4719
18.6082
18.7447
18.8813
19.0179
19.1546
19.2912
19.4278
19.5643
19.7007
19.8369
19.9729
20.1087
20.2443
20.3796
20.5145
20.6492
20.7834
20.9173
21.0508
21.1838
21.3164
21.4485
21.5801
21.7111
21.8416
21.9716
22.101
22.2297
22.3579
22.4854
22.6123
22.7385
22.8641
22.9889
23.1131
23.2365
23.3592
23.4812
23.6024
23.7229
23.8426
23.9615
24.0796
24.197
24.3135
24.4292
24.5441
24.6582
24.7715
24.8839
24.9955
25.1062
25.2161
25.3251
25.4333
25.5406
25.647
25.7525
25.8572
25.961
26.064
26.166
26.2672
26.3675
26.4669
26.5654
26.663
26.7598
26.8556
26.9506
27.0446
27.1378
27.2301
27.3215
27.412
27.5016
27.5903
27.6781
27.765
27.8511
27.9362
28.0205
28.1039
28.1864
28.268
28.3487
28.4285
28.5075
28.5855
28.6627
28.7391
28.8145
28.8891
28.9627
29.0356
29.1075
29.1786
29.2488
29.3182
29.3866
29.4543
29.521
29.5869
29.652
29.7162
29.7795
29.842
29.9036
29.9644
30.0244
30.0835
30.1417
30.1991
30.2557
30.3115
30.3664
30.4204
30.4737
30.5261
30.5776
30.6284
30.6783
30.7274
30.7756
30.8231
30.8697
30.9155
30.9605
31.0047
31.048
31.0906
31.1323
31.1732
31.2133
31.2526
31.2911
31.3288
31.3657
31.4018
31.4371
31.4716
31.5052
31.5381
31.5702
31.6015
31.632
31.6617
31.6906
31.7187
31.746
31.7726
31.7983
31.8233
31.8474
31.8708
31.8934
31.9152
31.9362
31.9565
31.9759
31.9946
32.0125
32.0296
32.0459
32.0614
32.0762
32.0902
32.1034
32.1158
32.1275
32.1383
32.1484
32.1577
32.1663
32.174
32.181
32.1872
32.1927
32.1973
32.2012
32.2043
32.2066
32.2082
32.2089
18.4215
18.4118
18.3922
18.3631
18.3248
18.2775
18.2217
18.1579
18.0864
18.008
17.923
17.832
17.7355
17.6339
17.5279
17.4177
17.3039
17.1869
17.0671
16.9448
16.8204
16.6942
16.5667
16.438
16.3085
16.1785
16.0482
15.9178
15.7877
15.6581
15.5291
15.4011
15.2741
15.1485
15.0243
14.9018
14.7812
14.6626
14.5461
14.4319
14.3202
14.2111
14.1047
14.0012
13.9006
13.8031
13.7088
13.6177
13.5301
13.4458
13.3651
13.288
13.2146
13.1448
13.0789
13.0168
12.9586
12.9043
12.8539
12.8076
12.7652
12.7269
12.6925
12.6623
12.6361
12.6139
12.5958
12.5817
12.5717
12.5656
12.5636
12.5655
12.5714
12.5811
12.5948
12.6123
12.6336
12.6587
12.6875
12.7199
12.756
12.7957
12.8388
12.8855
12.9355
12.9889
13.0455
13.1054
13.1685
13.2346
13.3038
13.3759
13.4509
13.5287
13.6093
13.6926
13.7785
13.867
13.9579
14.0512
14.1468
14.2447
14.3448
14.447
14.5513
14.6575
14.7657
14.8756
14.9874
15.1008
15.2159
15.3325
15.4506
15.5702
15.6911
15.8133
15.9368
16.0614
16.1871
16.3139
16.4417
16.5704
16.7
16.8304
16.9615
17.0934
17.2259
17.359
17.4927
17.6269
17.7615
17.8965
18.0318
18.1675
18.3034
18.4396
18.5759
18.7124
18.8489
18.9855
19.1221
19.2587
19.3953
19.5317
19.668
19.8042
19.9402
20.0759
20.2114
20.3466
20.4815
20.6161
20.7503
20.8841
21.0175
21.1504
21.2829
21.4149
21.5464
21.6774
21.8078
21.9377
22.067
22.1957
22.3237
22.4512
22.578
22.7041
22.8295
22.9543
23.0783
23.2017
23.3243
23.4461
23.5673
23.6876
23.8072
23.926
24.044
24.1613
24.2777
24.3933
24.5081
24.6221
24.7352
24.8475
24.959
25.0696
25.1794
25.2883
25.3963
25.5035
25.6098
25.7153
25.8198
25.9235
26.0264
26.1283
26.2294
26.3295
26.4288
26.5272
26.6247
26.7214
26.8171
26.9119
27.0059
27.099
27.1911
27.2824
27.3728
27.4623
27.5509
27.6386
27.7254
27.8113
27.8964
27.9805
28.0638
28.1462
28.2277
28.3083
28.388
28.4669
28.5449
28.622
28.6982
28.7735
28.848
28.9216
28.9943
29.0662
29.1371
29.2073
29.2765
29.3449
29.4124
29.4791
29.5449
29.6099
29.674
29.7372
29.7996
29.8612
29.9219
29.9818
30.0408
30.099
30.1563
30.2128
30.2684
30.3233
30.3772
30.4304
30.4827
30.5342
30.5849
30.6347
30.6838
30.732
30.7793
30.8259
30.8716
30.9166
30.9607
31.004
31.0464
31.0881
31.129
31.169
31.2083
31.2467
31.2843
31.3212
31.3572
31.3924
31.4269
31.4605
31.4933
31.5254
31.5566
31.5871
31.6167
31.6456
31.6737
31.7009
31.7274
31.7531
31.778
31.8022
31.8255
31.8481
31.8698
31.8908
31.911
31.9305
31.9491
31.967
31.984
32.0003
32.0159
32.0306
32.0446
32.0578
32.0702
32.0818
32.0926
32.1027
32.112
32.1205
32.1283
32.1353
32.1415
32.1469
32.1515
32.1554
32.1585
32.1608
32.1624
32.1632
18.3472
18.3376
18.3185
18.2902
18.2526
18.2064
18.1518
18.0892
18.019
17.9419
17.8582
17.7685
17.6732
17.5728
17.4679
17.3588
17.2459
17.1298
17.0108
16.8893
16.7656
16.6401
16.5132
16.3851
16.2561
16.1266
15.9968
15.867
15.7373
15.6081
15.4796
15.352
15.2255
15.1003
14.9765
14.8545
14.7342
14.616
14.4999
14.3861
14.2748
14.1661
14.0601
13.9569
13.8567
13.7596
13.6656
13.5749
13.4876
13.4037
13.3233
13.2466
13.1735
13.1041
13.0385
12.9768
12.9189
12.8649
12.8149
12.7689
12.7269
12.6888
12.6549
12.6249
12.599
12.5772
12.5594
12.5457
12.5359
12.5302
12.5285
12.5307
12.5369
12.547
12.561
12.5788
12.6004
12.6258
12.6549
12.6877
12.7241
12.764
12.8075
12.8545
12.9048
12.9585
13.0154
13.0756
13.1389
13.2054
13.2748
13.3472
13.4225
13.5006
13.5815
13.6651
13.7512
13.8399
13.9311
14.0247
14.1206
14.2188
14.3191
14.4216
14.526
14.6325
14.7409
14.8511
14.9631
15.0767
15.192
15.3089
15.4272
15.5469
15.6681
15.7905
15.9141
16.0389
16.1649
16.2918
16.4198
16.5487
16.6784
16.809
16.9403
17.0723
17.205
17.3382
17.472
17.6063
17.7411
17.8762
18.0117
18.1475
18.2835
18.4198
18.5562
18.6928
18.8295
18.9662
19.1029
19.2396
19.3762
19.5127
19.6491
19.7854
19.9214
20.0572
20.1928
20.3281
20.463
20.5976
20.7319
20.8657
20.9992
21.1322
21.2647
21.3968
21.5283
21.6593
21.7898
21.9197
22.049
22.1777
22.3058
22.4332
22.56
22.6861
22.8116
22.9364
23.0604
23.1838
23.3064
23.4282
23.5494
23.6697
23.7893
23.9081
24.0261
24.1433
24.2597
24.3753
24.4901
24.6041
24.7172
24.8295
24.9409
25.0515
25.1613
25.2701
25.3782
25.4853
25.5916
25.697
25.8016
25.9053
26.0081
26.11
26.211
26.3111
26.4104
26.5088
26.6062
26.7028
26.7985
26.8933
26.9872
27.0803
27.1724
27.2636
27.354
27.4434
27.532
27.6197
27.7064
27.7923
27.8773
27.9614
28.0447
28.127
28.2085
28.289
28.3687
28.4475
28.5255
28.6025
28.6787
28.754
28.8284
28.902
28.9746
29.0465
29.1174
29.1875
29.2567
29.325
29.3925
29.4592
29.5249
29.5898
29.6539
29.7171
29.7795
29.841
29.9016
29.9615
30.0204
30.0786
30.1359
30.1923
30.2479
30.3027
30.3567
30.4098
30.4621
30.5135
30.5642
30.614
30.663
30.7111
30.7585
30.805
30.8507
30.8956
30.9397
30.9829
31.0254
31.067
31.1078
31.1479
31.1871
31.2255
31.2631
31.2999
31.3359
31.3711
31.4055
31.4391
31.4719
31.5039
31.5351
31.5656
31.5952
31.624
31.6521
31.6793
31.7058
31.7315
31.7564
31.7805
31.8038
31.8264
31.8481
31.8691
31.8893
31.9087
31.9273
31.9452
31.9622
31.9785
31.994
32.0088
32.0227
32.0359
32.0483
32.0599
32.0707
32.0808
32.0901
32.0986
32.1064
32.1133
32.1195
32.1249
32.1296
32.1334
32.1365
32.1389
32.1404
32.1412
18.2656
18.2561
18.2373
18.2092
18.1722
18.1264
18.0724
18.0104
17.941
17.8646
17.7816
17.6926
17.5981
17.4984
17.3942
17.2857
17.1736
17.0581
16.9397
16.8188
16.6957
16.5709
16.4445
16.317
16.1886
16.0597
15.9304
15.8011
15.672
15.5434
15.4154
15.2883
15.1624
15.0377
14.9144
14.7929
14.6732
14.5554
14.4398
14.3266
14.2157
14.1075
14.002
13.8993
13.7996
13.7029
13.6094
13.5192
13.4323
13.3488
13.2689
13.1926
13.1199
13.051
12.9858
12.9245
12.867
12.8135
12.7639
12.7183
12.6766
12.639
12.6054
12.5759
12.5504
12.5289
12.5115
12.4982
12.4888
12.4835
12.4821
12.4847
12.4913
12.5017
12.5161
12.5342
12.5562
12.5819
12.6114
12.6445
12.6812
12.7215
12.7653
12.8126
12.8632
12.9172
12.9745
13.035
13.0986
13.1654
13.2351
13.3078
13.3834
13.4618
13.5429
13.6268
13.7132
13.8022
13.8936
13.9874
14.0836
14.182
14.2826
14.3853
14.49
14.5967
14.7053
14.8157
14.9279
15.0417
15.1572
15.2742
15.3928
15.5127
15.634
15.7566
15.8804
16.0054
16.1314
16.2585
16.3866
16.5157
16.6455
16.7762
16.9077
17.0398
17.1726
17.3059
17.4398
17.5742
17.7091
17.8443
17.9799
18.1157
18.2518
18.3882
18.5247
18.6613
18.798
18.9347
19.0715
19.2082
19.3449
19.4815
19.6179
19.7542
19.8902
20.0261
20.1616
20.2969
20.4319
20.5665
20.7007
20.8346
20.968
21.101
21.2335
21.3655
21.497
21.628
21.7585
21.8883
22.0176
22.1463
22.2743
22.4017
22.5285
22.6546
22.78
22.9047
23.0287
23.152
23.2745
23.3964
23.5174
23.6377
23.7572
23.876
23.9939
24.1111
24.2274
24.3429
24.4576
24.5715
24.6846
24.7968
24.9082
25.0187
25.1283
25.2371
25.3451
25.4522
25.5584
25.6637
25.7682
25.8718
25.9745
26.0763
26.1772
26.2773
26.3765
26.4747
26.5721
26.6686
26.7642
26.859
26.9528
27.0457
27.1378
27.2289
27.3192
27.4085
27.497
27.5846
27.6713
27.7571
27.842
27.926
28.0092
28.0914
28.1728
28.2533
28.3329
28.4116
28.4894
28.5664
28.6425
28.7177
28.792
28.8655
28.9381
29.0098
29.0807
29.1507
29.2198
29.2881
29.3555
29.4221
29.4877
29.5526
29.6166
29.6797
29.742
29.8034
29.864
29.9238
29.9827
30.0407
30.0979
30.1543
30.2099
30.2646
30.3185
30.3715
30.4237
30.4751
30.5257
30.5754
30.6244
30.6725
30.7197
30.7662
30.8119
30.8567
30.9007
30.9439
30.9863
31.0279
31.0687
31.1086
31.1478
31.1861
31.2237
31.2605
31.2964
31.3316
31.3659
31.3995
31.4322
31.4642
31.4954
31.5258
31.5554
31.5842
31.6122
31.6394
31.6658
31.6915
31.7163
31.7404
31.7637
31.7862
31.8079
31.8289
31.849
31.8684
31.887
31.9048
31.9219
31.9381
31.9536
31.9683
31.9823
31.9954
32.0078
32.0194
32.0302
32.0403
32.0496
32.0581
32.0658
32.0728
32.0789
32.0844
32.089
32.0929
32.096
32.0983
32.0998
32.1006
18.1709
18.1617
18.1434
18.1161
18.08
18.0354
17.9827
17.9222
17.8543
17.7794
17.698
17.6106
17.5176
17.4194
17.3165
17.2095
17.0986
16.9843
16.867
16.7471
16.625
16.501
16.3755
16.2488
16.1211
15.9929
15.8643
15.7357
15.6072
15.4792
15.3518
15.2253
15.0999
14.9757
14.853
14.732
14.6128
14.4956
14.3805
14.2678
14.1574
14.0497
13.9446
13.8424
13.7432
13.647
13.554
13.4642
13.3778
13.2948
13.2153
13.1395
13.0673
12.9988
12.9341
12.8732
12.8161
12.763
12.7139
12.6687
12.6275
12.5903
12.5572
12.5281
12.503
12.482
12.465
12.4521
12.4431
12.4382
12.4373
12.4403
12.4473
12.4582
12.473
12.4916
12.514
12.5401
12.57
12.6035
12.6407
12.6814
12.7256
12.7732
12.8243
12.8787
12.9364
12.9973
13.0613
13.1285
13.1986
13.2717
13.3477
13.4264
13.508
13.5922
13.679
13.7683
13.8601
13.9543
14.0508
14.1496
14.2505
14.3535
14.4586
14.5656
14.6745
14.7853
14.8978
15.0119
15.1277
15.2451
15.3639
15.4841
15.6057
15.7286
15.8526
15.9779
16.1042
16.2316
16.3599
16.4892
16.6193
16.7503
16.8819
17.0143
17.1473
17.2809
17.415
17.5496
17.6846
17.82
17.9558
18.0918
18.2281
18.3646
18.5013
18.6381
18.7749
18.9118
19.0487
19.1856
19.3224
19.4591
19.5957
19.732
19.8682
20.0042
20.1398
20.2752
20.4103
20.545
20.6793
20.8133
20.9468
21.0799
21.2124
21.3445
21.4761
21.6072
21.7377
21.8676
21.9969
22.1256
22.2537
22.3812
22.508
22.6341
22.7595
22.8843
23.0083
23.1316
23.2542
23.376
23.4971
23.6174
23.7369
23.8557
23.9736
24.0908
24.2071
24.3227
24.4374
24.5513
24.6643
24.7765
24.8879
24.9984
25.108
25.2168
25.3247
25.4318
25.538
25.6433
25.7477
25.8513
25.954
26.0558
26.1567
26.2567
26.3559
26.4541
26.5515
26.6479
26.7435
26.8382
26.932
27.0249
27.1169
27.208
27.2982
27.3875
27.476
27.5635
27.6502
27.7359
27.8208
27.9048
27.9879
28.0701
28.1514
28.2318
28.3114
28.3901
28.4679
28.5448
28.6208
28.696
28.7703
28.8437
28.9163
28.988
29.0588
29.1287
29.1978
29.266
29.3334
29.3999
29.4655
29.5303
29.5943
29.6574
29.7196
29.781
29.8415
29.9012
29.9601
30.0181
30.0753
30.1316
30.1871
30.2418
30.2956
30.3487
30.4008
30.4522
30.5027
30.5524
30.6013
30.6494
30.6966
30.743
30.7886
30.8334
30.8774
30.9206
30.9629
31.0045
31.0452
31.0851
31.1243
31.1626
31.2001
31.2368
31.2728
31.3079
31.3422
31.3757
31.4085
31.4404
31.4716
31.5019
31.5315
31.5603
31.5882
31.6154
31.6418
31.6675
31.6923
31.7164
31.7396
31.7621
31.7838
31.8047
31.8249
31.8442
31.8628
31.8806
31.8977
31.9139
31.9294
31.9441
31.958
31.9711
31.9835
31.9951
32.0059
32.016
32.0252
32.0337
32.0414
32.0484
32.0546
32.06
32.0646
32.0685
32.0716
32.0739
32.0754
32.0762
18.0686
18.0596
18.0417
18.0149
17.9796
17.9359
17.8841
17.8246
17.7579
17.6842
17.604
17.5178
17.426
17.3291
17.2274
17.1215
17.0117
16.8984
16.7822
16.6633
16.5421
16.419
16.2943
16.1684
16.0415
15.914
15.7862
15.6583
15.5305
15.4031
15.2764
15.1506
15.0258
14.9023
14.7802
14.6598
14.5412
14.4246
14.3101
14.198
14.0882
13.981
13.8766
13.7749
13.6762
13.5806
13.4881
13.3989
13.313
13.2306
13.1517
13.0763
13.0046
12.9367
12.8725
12.8121
12.7556
12.703
12.6543
12.6096
12.5689
12.5322
12.4996
12.471
12.4464
12.4259
12.4094
12.3969
12.3885
12.3841
12.3836
12.3871
12.3946
12.4059
12.4212
12.4402
12.4631
12.4897
12.52
12.554
12.5916
12.6328
12.6774
12.7255
12.7771
12.8319
12.89
12.9513
13.0158
13.0833
13.1539
13.2274
13.3038
13.383
13.4649
13.5495
13.6367
13.7264
13.8186
13.9131
14.01
14.1091
14.2104
14.3138
14.4192
14.5266
14.6358
14.7469
14.8597
14.9742
15.0903
15.2079
15.327
15.4476
15.5694
15.6926
15.8169
15.9424
16.069
16.1967
16.3253
16.4548
16.5851
16.7163
16.8481
16.9807
17.1139
17.2477
17.382
17.5168
17.652
17.7876
17.9235
18.0597
18.1962
18.3328
18.4696
18.6066
18.7436
18.8806
19.0176
19.1546
19.2915
19.4283
19.565
19.7015
19.8377
19.9738
20.1095
20.245
20.3801
20.5149
20.6493
20.7833
20.9168
21.0499
21.1826
21.3147
21.4463
21.5774
21.7079
21.8379
21.9672
22.0959
22.2241
22.3515
22.4783
22.6044
22.7299
22.8546
22.9787
23.102
23.2245
23.3463
23.4674
23.5877
23.7072
23.8259
23.9438
24.0609
24.1773
24.2928
24.4074
24.5213
24.6343
24.7464
24.8577
24.9682
25.0778
25.1865
25.2944
25.4014
25.5076
25.6128
25.7172
25.8207
25.9233
26.0251
26.1259
26.2259
26.3249
26.4231
26.5204
26.6168
26.7123
26.8069
26.9007
26.9935
27.0854
27.1765
27.2666
27.3559
27.4442
27.5317
27.6183
27.704
27.7888
27.8727
27.9557
28.0378
28.1191
28.1995
28.2789
28.3576
28.4353
28.5121
28.5881
28.6632
28.7374
28.8108
28.8832
28.9548
29.0256
29.0955
29.1645
29.2326
29.2999
29.3664
29.4319
29.4967
29.5605
29.6235
29.6857
29.747
29.8075
29.8671
29.9259
29.9839
30.041
30.0973
30.1527
30.2073
30.2611
30.3141
30.3662
30.4175
30.4679
30.5176
30.5664
30.6144
30.6616
30.7079
30.7535
30.7982
30.8422
30.8853
30.9276
30.9691
31.0098
31.0496
31.0887
31.127
31.1645
31.2012
31.237
31.2721
31.3064
31.3399
31.3726
31.4045
31.4356
31.4659
31.4954
31.5242
31.5521
31.5793
31.6056
31.6312
31.656
31.6801
31.7033
31.7258
31.7474
31.7683
31.7884
31.8078
31.8263
31.8441
31.8611
31.8773
31.8928
31.9075
31.9214
31.9345
31.9468
31.9584
31.9692
31.9793
31.9885
31.997
32.0047
32.0117
32.0178
32.0232
32.0278
32.0317
32.0348
32.0371
32.0386
32.0394
17.9554
17.9466
17.9292
17.9033
17.8689
17.8264
17.7761
17.7181
17.653
17.581
17.5026
17.4181
17.3281
17.2328
17.1328
17.0284
16.9201
16.8084
16.6934
16.5758
16.4558
16.3339
16.2103
16.0854
15.9594
15.8329
15.7059
15.5787
15.4518
15.3252
15.1992
15.074
14.9499
14.8271
14.7057
14.5859
14.468
14.352
14.2382
14.1266
14.0174
13.9109
13.807
13.7059
13.6078
13.5128
13.4209
13.3322
13.2469
13.165
13.0867
13.0119
12.9407
12.8733
12.8097
12.7498
12.6939
12.6418
12.5937
12.5496
12.5094
12.4733
12.4412
12.4131
12.3891
12.3691
12.3531
12.3412
12.3333
12.3294
12.3295
12.3336
12.3415
12.3534
12.3692
12.3888
12.4122
12.4393
12.4702
12.5047
12.5428
12.5845
12.6297
12.6783
12.7304
12.7857
12.8443
12.9062
12.9711
13.0392
13.1103
13.1843
13.2611
13.3408
13.4232
13.5083
13.596
13.6862
13.7788
13.8739
13.9712
14.0708
14.1725
14.2763
14.3822
14.49
14.5996
14.7111
14.8243
14.9392
15.0557
15.1738
15.2933
15.4142
15.5364
15.6599
15.7847
15.9105
16.0375
16.1654
16.2944
16.4242
16.5549
16.6863
16.8185
16.9514
17.0849
17.219
17.3536
17.4886
17.6241
17.76
17.8961
18.0326
18.1693
18.3062
18.4432
18.5803
18.7176
18.8548
18.992
19.1292
19.2663
19.4033
19.5401
19.6768
19.8132
19.9494
20.0853
20.2209
20.3562
20.4911
20.6256
20.7598
20.8934
21.0267
21.1594
21.2917
21.4234
21.5546
21.6852
21.8152
21.9446
22.0734
22.2016
22.3292
22.456
22.5822
22.7077
22.8325
22.9566
23.0799
23.2025
23.3244
23.4455
23.5658
23.6854
23.8041
23.9221
24.0392
24.1555
24.271
24.3857
24.4996
24.6126
24.7248
24.8361
24.9465
25.0561
25.1649
25.2727
25.3797
25.4859
25.5911
25.6955
25.799
25.9016
26.0033
26.1041
26.2041
26.3031
26.4013
26.4985
26.5949
26.6904
26.785
26.8787
26.9715
27.0634
27.1544
27.2445
27.3337
27.422
27.5095
27.596
27.6816
27.7664
27.8503
27.9332
28.0153
28.0966
28.1769
28.2563
28.3349
28.4126
28.4894
28.5653
28.6403
28.7145
28.7878
28.8602
28.9318
29.0025
29.0723
29.1413
29.2094
29.2766
29.343
29.4086
29.4732
29.5371
29.6
29.6622
29.7234
29.7839
29.8434
29.9022
29.9601
30.0172
30.0734
30.1288
30.1834
30.2371
30.29
30.3421
30.3933
30.4437
30.4933
30.5421
30.5901
30.6372
30.6835
30.729
30.7737
30.8176
30.8607
30.903
30.9444
30.9851
31.0249
31.064
31.1022
31.1396
31.1763
31.2121
31.2472
31.2814
31.3149
31.3475
31.3794
31.4105
31.4408
31.4703
31.499
31.5269
31.554
31.5804
31.6059
31.6307
31.6547
31.6779
31.7004
31.722
31.7429
31.763
31.7823
31.8009
31.8186
31.8356
31.8518
31.8672
31.8819
31.8958
31.9089
31.9212
31.9328
31.9436
31.9536
31.9629
31.9713
31.979
31.986
31.9921
31.9975
32.0022
32.006
32.0091
32.0114
32.0129
32.0137
17.8346
17.8261
17.8091
17.7838
17.7503
17.7088
17.6596
17.603
17.5392
17.4687
17.3918
17.3089
17.2203
17.1266
17.0281
16.9252
16.8183
16.7079
16.5944
16.478
16.3592
16.2384
16.1159
15.992
15.8671
15.7415
15.6154
15.4892
15.363
15.2372
15.1121
14.9877
14.8644
14.7423
14.6216
14.5026
14.3853
14.2701
14.1569
14.046
13.9376
13.8316
13.7284
13.628
13.5306
13.4362
13.3449
13.2569
13.1722
13.091
13.0132
12.939
12.8685
12.8017
12.7387
12.6795
12.6241
12.5727
12.5251
12.4816
12.4421
12.4065
12.375
12.3475
12.3241
12.3047
12.2893
12.278
12.2707
12.2674
12.2681
12.2727
12.2813
12.2938
12.3101
12.3303
12.3543
12.382
12.4134
12.4485
12.4872
12.5294
12.5752
12.6244
12.677
12.7329
12.7921
12.8544
12.92
12.9886
13.0602
13.1347
13.2121
13.2923
13.3752
13.4608
13.549
13.6397
13.7328
13.8284
13.9262
14.0262
14.1284
14.2327
14.339
14.4473
14.5574
14.6693
14.783
14.8983
15.0152
15.1337
15.2536
15.3749
15.4975
15.6214
15.7465
15.8727
16.0001
16.1284
16.2576
16.3878
16.5188
16.6506
16.7831
16.9163
17.0501
17.1845
17.3193
17.4547
17.5904
17.7265
17.8629
17.9997
18.1366
18.2737
18.411
18.5483
18.6857
18.8232
18.9606
19.098
19.2353
19.3724
19.5094
19.6462
19.7828
19.9192
20.0552
20.191
20.3264
20.4614
20.5961
20.7303
20.8641
20.9974
21.1303
21.2626
21.3944
21.5257
21.6564
21.7865
21.916
22.0448