/*--------------------------------*- C++ -*----------------------------------*\
| =========                 |                                                 |
| \\      /  F ield         | OpenFOAM: The Open Source CFD Toolbox           |
|  \\    /   O peration     | Version:  2212                                  |
|   \\  /    A nd           | Website:  www.openfoam.com                      |
|    \\/     M anipulation  |                                                 |
\*---------------------------------------------------------------------------*/
FoamFile
{
    version     2.0;
    format      ascii;
    arch        "LSB;label=32;scalar=64";
    class       volScalarField;
    location    "910";
    object      p_rgh_0;
}
// * * * * * * * * * * * * * * * * * * * * * * * * * * * * * * * * * * * * * //

dimensions      [1 -1 -2 0 0 0 0];

internalField   nonuniform List<scalar> 
204800
(
50.535
50.5346
50.5325
50.5297
50.5254
50.5199
50.5128
50.5042
50.4941
50.4824
50.4692
50.4546
50.4386
50.4213
50.4027
50.3829
50.3618
50.3395
50.3161
50.2915
50.2657
50.2387
50.2106
50.1814
50.1511
50.1196
50.0871
50.0535
50.0188
49.9831
49.9463
49.9085
49.8698
49.83
49.7892
49.7475
49.7048
49.6612
49.6167
49.5713
49.525
49.4779
49.4299
49.3811
49.3315
49.2812
49.23
49.1781
49.1255
49.0722
49.0181
48.9634
48.9081
48.8522
48.7956
48.7384
48.6807
48.6225
48.5637
48.5044
48.4446
48.3844
48.3238
48.2627
48.2013
48.1394
48.0773
48.0147
47.9519
47.8888
47.8255
47.7619
47.6981
47.6341
47.5699
47.5056
47.4411
47.3766
47.3119
47.2472
47.1824
47.1176
47.0528
46.9881
46.9233
46.8587
46.7941
46.7296
46.6652
46.601
46.5369
46.473
46.4093
46.3459
46.2827
46.2197
46.157
46.0946
46.0325
45.9707
45.9093
45.8482
45.7875
45.7273
45.6674
45.6079
45.5489
45.4904
45.4323
45.3748
45.3177
45.2611
45.2051
45.1496
45.0947
45.0403
44.9865
44.9333
44.8807
44.8288
44.7774
44.7267
44.6766
44.6272
44.5785
44.5304
44.4831
44.4364
44.3904
44.3451
44.3005
44.2567
44.2136
44.1712
44.1296
44.0887
44.0485
44.0091
43.9705
43.9326
43.8955
43.8592
43.8236
43.7888
43.7548
43.7215
43.6891
43.6574
43.6265
43.5964
43.567
43.5385
43.5107
43.4837
43.4575
43.4321
43.4074
43.3836
43.3604
43.3381
43.3165
43.2957
43.2757
43.2564
43.2378
43.22
43.203
43.1867
43.1711
43.1562
43.1421
43.1287
43.116
43.104
43.0927
43.0821
43.0721
43.0629
43.0543
43.0464
43.0392
43.0326
43.0266
43.0213
43.0166
43.0125
43.009
43.0061
43.0038
43.0021
43.001
43.0004
43.0004
43.0009
43.002
43.0036
43.0057
43.0083
43.0114
43.0151
43.0191
43.0237
43.0287
43.0342
43.0401
43.0464
43.0531
43.0603
43.0678
43.0758
43.0841
43.0928
43.1018
43.1112
43.1209
43.131
43.1413
43.152
43.163
43.1742
43.1857
43.1975
43.2096
43.2219
43.2344
43.2471
43.2601
43.2732
43.2866
43.3001
43.3138
43.3276
43.3417
43.3558
43.3701
43.3845
43.3991
43.4137
43.4284
43.4433
43.4582
43.4731
43.4882
43.5032
43.5183
43.5335
43.5487
43.5638
43.579
43.5942
43.6094
43.6245
43.6397
43.6548
43.6698
43.6848
43.6997
43.7146
43.7294
43.7441
43.7587
43.7732
43.7877
43.802
43.8161
43.8302
43.8441
43.8579
43.8715
43.885
43.8984
43.9115
43.9245
43.9373
43.95
43.9624
43.9746
43.9867
43.9985
44.0102
44.0216
44.0328
44.0438
44.0545
44.065
44.0753
44.0853
44.0951
44.1046
44.1138
44.1229
44.1316
44.1401
44.1483
44.1562
44.1639
44.1712
44.1783
44.1851
44.1916
44.1978
44.2038
44.2094
44.2147
44.2197
44.2244
44.2289
44.233
44.2368
44.2402
44.2434
44.2463
44.2488
44.2511
44.253
44.2546
44.2558
44.2568
44.2574
44.2578
50.4501
50.4486
50.4452
50.4406
50.4345
50.4271
50.4183
50.4084
50.3972
50.3847
50.3709
50.356
50.3397
50.3223
50.3036
50.2837
50.2627
50.2404
50.217
50.1924
50.1666
50.1397
50.1116
50.0825
50.0522
50.0208
49.9883
49.9547
49.9201
49.8844
49.8477
49.81
49.7713
49.7316
49.6909
49.6492
49.6067
49.5631
49.5187
49.4734
49.4272
49.3802
49.3323
49.2836
49.234
49.1838
49.1327
49.0809
49.0284
48.9751
48.9212
48.8666
48.8114
48.7555
48.6991
48.642
48.5844
48.5262
48.4676
48.4084
48.3488
48.2886
48.2281
48.1671
48.1058
48.0441
47.982
47.9196
47.8569
47.794
47.7307
47.6673
47.6036
47.5397
47.4756
47.4114
47.3471
47.2826
47.2181
47.1535
47.0888
47.0242
46.9595
46.8948
46.8302
46.7657
46.7012
46.6368
46.5726
46.5085
46.4445
46.3807
46.3172
46.2538
46.1907
46.1278
46.0653
46.003
45.941
45.8793
45.818
45.7571
45.6965
45.6363
45.5766
45.5172
45.4583
45.3999
45.342
45.2845
45.2275
45.171
45.1151
45.0597
45.0049
44.9506
44.897
44.8439
44.7914
44.7395
44.6882
44.6376
44.5877
44.5384
44.4897
44.4417
44.3944
44.3478
44.3019
44.2568
44.2123
44.1685
44.1255
44.0832
44.0416
44.0008
43.9607
43.9214
43.8828
43.845
43.808
43.7717
43.7362
43.7015
43.6675
43.6344
43.602
43.5703
43.5395
43.5094
43.4802
43.4517
43.4239
43.397
43.3709
43.3455
43.3209
43.297
43.274
43.2517
43.2301
43.2094
43.1893
43.1701
43.1516
43.1338
43.1168
43.1005
43.085
43.0701
43.056
43.0426
43.03
43.018
43.0067
42.9961
42.9862
42.977
42.9685
42.9606
42.9533
42.9467
42.9408
42.9355
42.9308
42.9267
42.9232
42.9204
42.9181
42.9164
42.9152
42.9147
42.9147
42.9152
42.9163
42.9179
42.92
42.9226
42.9257
42.9293
42.9334
42.9379
42.9429
42.9484
42.9543
42.9606
42.9673
42.9745
42.982
42.99
42.9983
43.0069
43.016
43.0253
43.035
43.0451
43.0554
43.0661
43.077
43.0882
43.0997
43.1115
43.1235
43.1358
43.1483
43.161
43.1739
43.187
43.2004
43.2139
43.2276
43.2414
43.2554
43.2695
43.2838
43.2982
43.3127
43.3273
43.342
43.3568
43.3717
43.3866
43.4016
43.4167
43.4318
43.4469
43.462
43.4772
43.4923
43.5075
43.5226
43.5378
43.5529
43.5679
43.5829
43.5979
43.6128
43.6277
43.6424
43.6571
43.6717
43.6862
43.7006
43.7149
43.729
43.743
43.7569
43.7707
43.7843
43.7978
43.8111
43.8242
43.8372
43.85
43.8626
43.875
43.8872
43.8993
43.9111
43.9227
43.9341
43.9453
43.9562
43.9669
43.9774
43.9877
43.9977
44.0074
44.0169
44.0262
44.0352
44.0439
44.0524
44.0606
44.0685
44.0761
44.0835
44.0905
44.0973
44.1038
44.11
44.1159
44.1215
44.1269
44.1319
44.1366
44.141
44.1451
44.1489
44.1524
44.1555
44.1584
44.1609
44.1631
44.1651
44.1666
44.1679
44.1689
44.1695
44.1698
50.4319
50.4304
50.4271
50.4225
50.4163
50.409
50.4002
50.3902
50.379
50.3665
50.3527
50.3377
50.3214
50.304
50.2853
50.2654
50.2443
50.222
50.1985
50.1739
50.1481
50.1212
50.0931
50.0639
50.0336
50.0022
49.9697
49.9362
49.9016
49.8659
49.8292
49.7915
49.7527
49.713
49.6723
49.6307
49.5881
49.5446
49.5001
49.4548
49.4086
49.3616
49.3137
49.265
49.2155
49.1652
49.1141
49.0623
49.0098
48.9565
48.9026
48.848
48.7928
48.737
48.6805
48.6234
48.5658
48.5077
48.449
48.3898
48.3302
48.2701
48.2096
48.1486
48.0873
48.0256
47.9635
47.9011
47.8384
47.7754
47.7122
47.6487
47.5851
47.5212
47.4571
47.3929
47.3286
47.2641
47.1996
47.135
47.0704
47.0057
46.941
46.8764
46.8118
46.7472
46.6828
46.6184
46.5541
46.49
46.4261
46.3623
46.2988
46.2354
46.1723
46.1095
46.0469
45.9846
45.9226
45.861
45.7997
45.7387
45.6782
45.618
45.5583
45.4989
45.44
45.3816
45.3237
45.2662
45.2092
45.1528
45.0969
45.0415
44.9866
44.9324
44.8787
44.8256
44.7732
44.7213
44.67
44.6194
44.5695
44.5202
44.4715
44.4236
44.3763
44.3297
44.2838
44.2386
44.1941
44.1504
44.1074
44.0651
44.0235
43.9827
43.9426
43.9033
43.8648
43.827
43.7899
43.7537
43.7182
43.6835
43.6495
43.6164
43.584
43.5524
43.5215
43.4915
43.4622
43.4337
43.406
43.3791
43.3529
43.3276
43.3029
43.2791
43.2561
43.2338
43.2122
43.1915
43.1715
43.1522
43.1337
43.116
43.099
43.0827
43.0671
43.0523
43.0382
43.0249
43.0122
43.0002
42.9889
42.9784
42.9685
42.9593
42.9507
42.9428
42.9356
42.929
42.9231
42.9178
42.9131
42.909
42.9055
42.9027
42.9004
42.8987
42.8976
42.897
42.897
42.8975
42.8986
42.9002
42.9023
42.905
42.9081
42.9117
42.9158
42.9203
42.9253
42.9308
42.9367
42.943
42.9498
42.9569
42.9644
42.9724
42.9807
42.9894
42.9984
43.0078
43.0175
43.0275
43.0379
43.0485
43.0595
43.0707
43.0822
43.094
43.106
43.1182
43.1307
43.1435
43.1564
43.1695
43.1828
43.1964
43.21
43.2239
43.2379
43.252
43.2663
43.2807
43.2952
43.3098
43.3245
43.3393
43.3542
43.3691
43.3841
43.3992
43.4143
43.4294
43.4445
43.4597
43.4748
43.49
43.5052
43.5203
43.5354
43.5504
43.5655
43.5804
43.5953
43.6102
43.6249
43.6396
43.6542
43.6687
43.6831
43.6974
43.7115
43.7256
43.7395
43.7532
43.7668
43.7803
43.7936
43.8067
43.8197
43.8325
43.8451
43.8575
43.8697
43.8818
43.8936
43.9052
43.9166
43.9278
43.9387
43.9495
43.9599
43.9702
43.9802
43.9899
43.9995
44.0087
44.0177
44.0264
44.0349
44.0431
44.051
44.0586
44.066
44.073
44.0798
44.0863
44.0925
44.0984
44.1041
44.1094
44.1144
44.1191
44.1235
44.1276
44.1314
44.1349
44.138
44.1409
44.1434
44.1456
44.1476
44.1491
44.1504
44.1514
44.152
44.1523
50.3557
50.3539
50.35
50.3447
50.3377
50.3294
50.3198
50.3091
50.2972
50.2841
50.2699
50.2546
50.2381
50.2204
50.2016
50.1816
50.1604
50.1381
50.1146
50.0899
50.0641
50.0372
50.0091
49.9799
49.9497
49.9183
49.8858
49.8523
49.8177
49.782
49.7454
49.7077
49.669
49.6293
49.5887
49.547
49.5045
49.461
49.4166
49.3714
49.3252
49.2782
49.2304
49.1818
49.1323
49.0821
49.0311
48.9793
48.9269
48.8737
48.8198
48.7653
48.7101
48.6544
48.598
48.541
48.4834
48.4254
48.3668
48.3077
48.2481
48.1881
48.1276
48.0667
48.0055
47.9438
47.8818
47.8195
47.7569
47.694
47.6309
47.5675
47.5039
47.4401
47.3761
47.312
47.2477
47.1833
47.1189
47.0544
46.9898
46.9252
46.8606
46.7961
46.7315
46.6671
46.6027
46.5384
46.4742
46.4102
46.3464
46.2827
46.2192
46.1559
46.0929
46.0301
45.9676
45.9054
45.8435
45.782
45.7207
45.6599
45.5994
45.5393
45.4796
45.4204
45.3616
45.3032
45.2454
45.188
45.1311
45.0747
45.0188
44.9635
44.9088
44.8546
44.801
44.748
44.6956
44.6438
44.5926
44.5421
44.4922
44.443
44.3944
44.3465
44.2993
44.2527
44.2069
44.1618
44.1174
44.0737
44.0307
43.9885
43.947
43.9062
43.8662
43.827
43.7885
43.7507
43.7137
43.6775
43.6421
43.6074
43.5735
43.5404
43.5081
43.4765
43.4457
43.4157
43.3865
43.3581
43.3304
43.3035
43.2774
43.2521
43.2275
43.2037
43.1807
43.1584
43.137
43.1162
43.0963
43.077
43.0586
43.0408
43.0239
43.0076
42.9921
42.9773
42.9632
42.9499
42.9372
42.9253
42.9141
42.9035
42.8936
42.8844
42.8759
42.868
42.8608
42.8543
42.8483
42.843
42.8384
42.8343
42.8309
42.828
42.8257
42.8241
42.8229
42.8224
42.8224
42.8229
42.824
42.8256
42.8277
42.8304
42.8335
42.8371
42.8412
42.8457
42.8508
42.8562
42.8621
42.8684
42.8752
42.8823
42.8899
42.8978
42.9061
42.9148
42.9238
42.9332
42.9429
42.9529
42.9632
42.9739
42.9848
42.996
43.0075
43.0193
43.0313
43.0436
43.056
43.0688
43.0817
43.0948
43.1081
43.1216
43.1353
43.1491
43.1631
43.1772
43.1915
43.2059
43.2203
43.2349
43.2496
43.2644
43.2793
43.2942
43.3092
43.3242
43.3393
43.3544
43.3695
43.3847
43.3998
43.415
43.4301
43.4452
43.4603
43.4753
43.4903
43.5053
43.5202
43.535
43.5498
43.5644
43.579
43.5935
43.6078
43.6221
43.6362
43.6503
43.6641
43.6779
43.6915
43.7049
43.7182
43.7313
43.7443
43.7571
43.7697
43.7821
43.7943
43.8063
43.8181
43.8297
43.8411
43.8522
43.8632
43.8739
43.8844
43.8946
43.9046
43.9143
43.9238
43.9331
43.942
43.9508
43.9592
43.9674
43.9753
43.9829
43.9903
43.9973
44.0041
44.0106
44.0168
44.0227
44.0283
44.0336
44.0386
44.0433
44.0477
44.0518
44.0556
44.0591
44.0622
44.0651
44.0676
44.0698
44.0718
44.0733
44.0746
44.0756
44.0762
44.0765
50.3258
50.324
50.3202
50.3149
50.308
50.2998
50.2903
50.2796
50.2677
50.2546
50.2404
50.225
50.2085
50.1908
50.1719
50.1518
50.1306
50.1082
50.0847
50.06
50.0342
50.0072
49.9791
49.9499
49.9196
49.8882
49.8557
49.8222
49.7876
49.7519
49.7152
49.6775
49.6388
49.5991
49.5585
49.5169
49.4743
49.4308
49.3864
49.3412
49.295
49.248
49.2002
49.1515
49.102
49.0518
49.0008
48.9491
48.8966
48.8434
48.7896
48.735
48.6799
48.6241
48.5677
48.5107
48.4531
48.3951
48.3365
48.2774
48.2178
48.1578
48.0973
48.0364
47.9751
47.9135
47.8515
47.7892
47.7266
47.6637
47.6005
47.5372
47.4735
47.4097
47.3458
47.2816
47.2174
47.153
47.0886
47.0241
46.9595
46.8949
46.8303
46.7658
46.7012
46.6368
46.5724
46.5081
46.4439
46.3799
46.3161
46.2524
46.1889
46.1257
46.0626
45.9999
45.9374
45.8752
45.8133
45.7517
45.6905
45.6296
45.5692
45.5091
45.4494
45.3902
45.3314
45.273
45.2151
45.1578
45.1009
45.0445
44.9887
44.9334
44.8786
44.8245
44.7709
44.7179
44.6655
44.6137
44.5625
44.512
44.4621
44.4129
44.3643
44.3164
44.2692
44.2227
44.1769
44.1318
44.0874
44.0437
44.0007
43.9585
43.917
43.8763
43.8363
43.797
43.7585
43.7208
43.6838
43.6476
43.6122
43.5776
43.5437
43.5106
43.4782
43.4467
43.4159
43.3859
43.3567
43.3283
43.3006
43.2738
43.2477
43.2223
43.1978
43.174
43.151
43.1288
43.1073
43.0866
43.0666
43.0474
43.029
43.0112
42.9943
42.978
42.9625
42.9478
42.9337
42.9204
42.9077
42.8958
42.8846
42.874
42.8642
42.855
42.8465
42.8386
42.8314
42.8249
42.8189
42.8137
42.809
42.805
42.8015
42.7987
42.7964
42.7947
42.7936
42.7931
42.7931
42.7937
42.7948
42.7964
42.7985
42.8012
42.8043
42.8079
42.812
42.8166
42.8216
42.8271
42.833
42.8393
42.8461
42.8532
42.8608
42.8687
42.877
42.8857
42.8947
42.9041
42.9138
42.9238
42.9342
42.9449
42.9558
42.967
42.9785
42.9903
43.0023
43.0146
43.0271
43.0398
43.0527
43.0658
43.0792
43.0927
43.1063
43.1202
43.1342
43.1483
43.1625
43.1769
43.1914
43.206
43.2207
43.2355
43.2504
43.2653
43.2803
43.2953
43.3104
43.3255
43.3407
43.3558
43.371
43.3861
43.4012
43.4164
43.4314
43.4465
43.4615
43.4765
43.4913
43.5062
43.5209
43.5356
43.5502
43.5646
43.579
43.5933
43.6074
43.6214
43.6353
43.6491
43.6627
43.6761
43.6894
43.7025
43.7155
43.7283
43.7409
43.7533
43.7655
43.7775
43.7893
43.8009
43.8123
43.8235
43.8344
43.8451
43.8556
43.8658
43.8758
43.8855
43.895
43.9043
43.9133
43.922
43.9304
43.9386
43.9465
43.9541
43.9615
43.9685
43.9753
43.9818
43.988
43.9939
43.9995
44.0048
44.0098
44.0145
44.0189
44.023
44.0268
44.0303
44.0335
44.0363
44.0388
44.0411
44.043
44.0446
44.0458
44.0468
44.0474
44.0477
50.2563
50.2544
50.2505
50.2449
50.2376
50.229
50.2191
50.208
50.1957
50.1824
50.1678
50.1522
50.1355
50.1176
50.0985
50.0784
50.0571
50.0346
50.011
49.9863
49.9604
49.9334
49.9053
49.8761
49.8457
49.8143
49.7818
49.7483
49.7137
49.678
49.6414
49.6037
49.565
49.5253
49.4847
49.4431
49.4005
49.3571
49.3127
49.2674
49.2213
49.1743
49.1265
49.0779
49.0285
48.9783
48.9273
48.8756
48.8231
48.77
48.7162
48.6617
48.6066
48.5508
48.4944
48.4375
48.38
48.322
48.2634
48.2043
48.1448
48.0848
48.0244
47.9636
47.9023
47.8407
47.7788
47.7165
47.654
47.5911
47.528
47.4647
47.4011
47.3374
47.2734
47.2093
47.1451
47.0808
47.0164
46.952
46.8874
46.8229
46.7584
46.6939
46.6294
46.565
46.5007
46.4364
46.3723
46.3083
46.2445
46.1809
46.1175
46.0543
45.9913
45.9286
45.8661
45.804
45.7422
45.6806
45.6195
45.5587
45.4982
45.4382
45.3786
45.3194
45.2607
45.2024
45.1445
45.0872
45.0304
44.9741
44.9183
44.863
44.8083
44.7542
44.7007
44.6477
44.5953
44.5436
44.4925
44.442
44.3922
44.343
44.2945
44.2466
44.1995
44.153
44.1072
44.0622
44.0178
43.9742
43.9313
43.8891
43.8476
43.8069
43.767
43.7278
43.6893
43.6517
43.6147
43.5786
43.5432
43.5086
43.4747
43.4417
43.4094
43.3779
43.3471
43.3172
43.288
43.2596
43.232
43.2052
43.1791
43.1538
43.1293
43.1055
43.0826
43.0604
43.0389
43.0182
42.9983
42.9791
42.9607
42.943
42.9261
42.9099
42.8944
42.8797
42.8656
42.8523
42.8397
42.8278
42.8166
42.8061
42.7962
42.7871
42.7786
42.7707
42.7636
42.757
42.7511
42.7459
42.7412
42.7372
42.7338
42.731
42.7287
42.7271
42.726
42.7254
42.7255
42.726
42.7272
42.7288
42.7309
42.7336
42.7367
42.7404
42.7445
42.749
42.7541
42.7595
42.7655
42.7718
42.7785
42.7857
42.7933
42.8012
42.8095
42.8182
42.8272
42.8366
42.8463
42.8564
42.8667
42.8774
42.8883
42.8996
42.9111
42.9228
42.9349
42.9471
42.9596
42.9723
42.9853
42.9984
43.0117
43.0252
43.0389
43.0527
43.0667
43.0808
43.0951
43.1095
43.124
43.1386
43.1532
43.168
43.1829
43.1978
43.2128
43.2278
43.2429
43.258
43.2731
43.2883
43.3034
43.3185
43.3337
43.3488
43.3639
43.3789
43.3939
43.4088
43.4237
43.4386
43.4533
43.468
43.4825
43.497
43.5114
43.5256
43.5398
43.5538
43.5676
43.5814
43.595
43.6084
43.6217
43.6348
43.6478
43.6605
43.6731
43.6855
43.6977
43.7097
43.7215
43.7331
43.7445
43.7556
43.7666
43.7773
43.7878
43.798
43.808
43.8177
43.8272
43.8364
43.8454
43.8541
43.8626
43.8707
43.8786
43.8862
43.8936
43.9006
43.9074
43.9139
43.9201
43.926
43.9316
43.9369
43.9419
43.9466
43.951
43.9551
43.9589
43.9624
43.9655
43.9684
43.9709
43.9731
43.975
43.9766
43.9779
43.9788
43.9795
43.9798
50.2186
50.2168
50.2129
50.2074
50.2003
50.1918
50.1819
50.1709
50.1587
50.1453
50.1308
50.1151
50.0983
50.0804
50.0613
50.0411
50.0198
49.9972
49.9736
49.9488
49.9229
49.8959
49.8677
49.8384
49.8081
49.7766
49.7441
49.7105
49.6759
49.6402
49.6035
49.5658
49.5271
49.4874
49.4467
49.4051
49.3626
49.3191
49.2747
49.2294
49.1833
49.1363
49.0885
49.0398
48.9904
48.9402
48.8892
48.8375
48.785
48.7319
48.678
48.6235
48.5684
48.5126
48.4562
48.3993
48.3418
48.2837
48.2251
48.1661
48.1065
48.0465
47.9861
47.9252
47.864
47.8024
47.7405
47.6782
47.6156
47.5527
47.4896
47.4263
47.3627
47.2989
47.235
47.1709
47.1067
47.0424
46.978
46.9135
46.849
46.7844
46.7199
46.6554
46.5909
46.5265
46.4621
46.3979
46.3338
46.2698
46.206
46.1424
46.0789
46.0157
45.9528
45.89
45.8276
45.7654
45.7036
45.6421
45.5809
45.5201
45.4597
45.3997
45.34
45.2808
45.2221
45.1638
45.106
45.0486
44.9918
44.9355
44.8797
44.8245
44.7698
44.7157
44.6621
44.6092
44.5568
44.5051
44.454
44.4035
44.3537
44.3045
44.256
44.2082
44.161
44.1145
44.0688
44.0237
43.9794
43.9357
43.8928
43.8507
43.8092
43.7686
43.7286
43.6894
43.651
43.6133
43.5764
43.5403
43.5049
43.4703
43.4364
43.4034
43.3711
43.3396
43.3089
43.279
43.2498
43.2214
43.1938
43.167
43.1409
43.1157
43.0912
43.0674
43.0445
43.0223
43.0009
42.9802
42.9603
42.9411
42.9227
42.9051
42.8881
42.8719
42.8565
42.8418
42.8277
42.8144
42.8019
42.79
42.7788
42.7683
42.7584
42.7493
42.7408
42.733
42.7258
42.7193
42.7135
42.7082
42.7036
42.6996
42.6962
42.6934
42.6911
42.6895
42.6884
42.6879
42.688
42.6886
42.6897
42.6913
42.6935
42.6961
42.6993
42.703
42.7071
42.7117
42.7167
42.7222
42.7281
42.7345
42.7413
42.7484
42.756
42.764
42.7723
42.781
42.79
42.7994
42.8092
42.8192
42.8296
42.8403
42.8512
42.8625
42.874
42.8858
42.8978
42.9101
42.9226
42.9353
42.9482
42.9614
42.9747
42.9882
43.0019
43.0157
43.0297
43.0439
43.0581
43.0725
43.087
43.1016
43.1163
43.1311
43.146
43.1609
43.1759
43.191
43.206
43.2212
43.2363
43.2514
43.2666
43.2817
43.2969
43.312
43.3271
43.3421
43.3571
43.3721
43.387
43.4018
43.4165
43.4312
43.4458
43.4603
43.4746
43.4889
43.503
43.5171
43.5309
43.5447
43.5583
43.5717
43.585
43.5981
43.6111
43.6238
43.6364
43.6488
43.661
43.6731
43.6849
43.6965
43.7078
43.719
43.7299
43.7406
43.7511
43.7613
43.7713
43.7811
43.7906
43.7998
43.8088
43.8175
43.8259
43.8341
43.842
43.8496
43.857
43.864
43.8708
43.8773
43.8835
43.8894
43.895
43.9003
43.9053
43.91
43.9144
43.9185
43.9223
43.9257
43.9289
43.9318
43.9343
43.9365
43.9384
43.94
43.9413
43.9422
43.9429
43.9432
50.1542
50.1523
50.1484
50.1428
50.1355
50.1269
50.1169
50.1057
50.0932
50.0797
50.065
50.0492
50.0322
50.0142
49.995
49.9746
49.9532
49.9306
49.9069
49.882
49.856
49.8289
49.8008
49.7715
49.7411
49.7096
49.6771
49.6434
49.6088
49.5731
49.5364
49.4987
49.4599
49.4202
49.3796
49.338
49.2954
49.2519
49.2075
49.1623
49.1161
49.0692
49.0213
48.9727
48.9233
48.873
48.8221
48.7703
48.7179
48.6648
48.6109
48.5564
48.5013
48.4455
48.3892
48.3323
48.2748
48.2167
48.1582
48.0991
48.0396
47.9796
47.9192
47.8583
47.7971
47.7355
47.6736
47.6114
47.5488
47.486
47.4229
47.3595
47.296
47.2322
47.1683
47.1042
47.04
46.9757
46.9114
46.8469
46.7824
46.7179
46.6534
46.5889
46.5244
46.46
46.3957
46.3315
46.2674
46.2035
46.1397
46.0761
46.0127
45.9495
45.8865
45.8238
45.7614
45.6993
45.6375
45.576
45.5149
45.4541
45.3937
45.3337
45.2741
45.2149
45.1562
45.098
45.0402
44.9829
44.9261
44.8698
44.814
44.7588
44.7041
44.65
44.5965
44.5436
44.4913
44.4396
44.3885
44.3381
44.2883
44.2391
44.1907
44.1429
44.0957
44.0493
44.0036
43.9585
43.9142
43.8706
43.8278
43.7856
43.7442
43.7036
43.6637
43.6245
43.5861
43.5484
43.5116
43.4755
43.4401
43.4055
43.3717
43.3387
43.3065
43.275
43.2443
43.2144
43.1853
43.1569
43.1294
43.1026
43.0766
43.0513
43.0268
43.0031
42.9802
42.958
42.9367
42.916
42.8961
42.877
42.8586
42.841
42.8241
42.8079
42.7925
42.7778
42.7638
42.7505
42.738
42.7261
42.7149
42.7045
42.6947
42.6855
42.6771
42.6693
42.6622
42.6557
42.6498
42.6446
42.64
42.636
42.6326
42.6298
42.6276
42.626
42.625
42.6245
42.6245
42.6251
42.6263
42.6279
42.6301
42.6328
42.636
42.6397
42.6438
42.6484
42.6535
42.659
42.6649
42.6713
42.6781
42.6853
42.6928
42.7008
42.7092
42.7179
42.7269
42.7363
42.7461
42.7561
42.7665
42.7772
42.7882
42.7994
42.811
42.8227
42.8348
42.8471
42.8596
42.8723
42.8853
42.8984
42.9117
42.9253
42.9389
42.9528
42.9668
42.9809
42.9952
43.0096
43.0241
43.0387
43.0534
43.0682
43.0831
43.098
43.113
43.1281
43.1432
43.1583
43.1734
43.1886
43.2037
43.2189
43.234
43.2491
43.2642
43.2793
43.2943
43.3092
43.3241
43.3389
43.3537
43.3683
43.3829
43.3974
43.4118
43.426
43.4402
43.4542
43.4681
43.4818
43.4954
43.5088
43.5221
43.5352
43.5482
43.561
43.5736
43.586
43.5982
43.6102
43.622
43.6336
43.6449
43.6561
43.667
43.6777
43.6882
43.6984
43.7084
43.7182
43.7277
43.7369
43.7459
43.7546
43.763
43.7712
43.7791
43.7867
43.794
43.8011
43.8079
43.8144
43.8206
43.8265
43.8321
43.8374
43.8424
43.8471
43.8515
43.8556
43.8593
43.8628
43.866
43.8688
43.8714
43.8736
43.8755
43.8771
43.8783
43.8793
43.8799
43.8803
50.1114
50.1095
50.1057
50.1003
50.0931
50.0846
50.0747
50.0635
50.0512
50.0376
50.0229
50.0071
49.9901
49.972
49.9528
49.9324
49.9109
49.8882
49.8645
49.8396
49.8135
49.7864
49.7582
49.7288
49.6984
49.6669
49.6343
49.6006
49.5659
49.5302
49.4935
49.4557
49.4169
49.3772
49.3365
49.2949
49.2523
49.2088
49.1644
49.1191
49.0729
49.0259
48.978
48.9294
48.8799
48.8297
48.7787
48.7269
48.6744
48.6213
48.5674
48.5129
48.4578
48.402
48.3456
48.2886
48.2311
48.173
48.1145
48.0554
47.9958
47.9358
47.8754
47.8145
47.7533
47.6917
47.6297
47.5674
47.5049
47.442
47.3789
47.3155
47.252
47.1882
47.1243
47.0602
46.996
46.9316
46.8672
46.8028
46.7382
46.6737
46.6092
46.5447
46.4802
46.4158
46.3514
46.2872
46.2231
46.1591
46.0953
46.0317
45.9683
45.9051
45.8421
45.7794
45.717
45.6549
45.593
45.5315
45.4704
45.4096
45.3492
45.2892
45.2296
45.1704
45.1117
45.0534
44.9956
44.9383
44.8815
44.8252
44.7695
44.7142
44.6596
44.6055
44.552
44.499
44.4467
44.395
44.3439
44.2935
44.2437
44.1946
44.1461
44.0983
44.0512
44.0047
43.959
43.914
43.8697
43.8261
43.7832
43.7411
43.6997
43.6591
43.6191
43.58
43.5416
43.504
43.4671
43.431
43.3957
43.3611
43.3273
43.2943
43.2621
43.2306
43.2
43.1701
43.1409
43.1126
43.0851
43.0583
43.0323
43.007
42.9826
42.9589
42.936
42.9139
42.8925
42.8719
42.852
42.8329
42.8145
42.7969
42.78
42.7639
42.7485
42.7338
42.7198
42.7066
42.694
42.6822
42.671
42.6606
42.6508
42.6417
42.6333
42.6255
42.6184
42.6119
42.6061
42.6009
42.5963
42.5923
42.589
42.5862
42.584
42.5824
42.5814
42.581
42.581
42.5817
42.5828
42.5845
42.5867
42.5894
42.5926
42.5963
42.6005
42.6051
42.6102
42.6157
42.6217
42.6281
42.6349
42.6421
42.6497
42.6577
42.666
42.6748
42.6839
42.6933
42.703
42.7131
42.7235
42.7342
42.7452
42.7565
42.768
42.7798
42.7919
42.8042
42.8167
42.8295
42.8424
42.8556
42.869
42.8825
42.8962
42.9101
42.9241
42.9382
42.9525
42.9669
42.9815
42.9961
43.0108
43.0256
43.0405
43.0555
43.0705
43.0855
43.1006
43.1158
43.1309
43.1461
43.1612
43.1764
43.1915
43.2067
43.2218
43.2368
43.2518
43.2668
43.2817
43.2965
43.3113
43.326
43.3406
43.3551
43.3694
43.3837
43.3979
43.4119
43.4258
43.4395
43.4531
43.4666
43.4799
43.493
43.5059
43.5187
43.5313
43.5437
43.5559
43.5679
43.5798
43.5914
43.6027
43.6139
43.6248
43.6355
43.646
43.6563
43.6662
43.676
43.6855
43.6947
43.7037
43.7124
43.7209
43.729
43.7369
43.7446
43.7519
43.759
43.7658
43.7722
43.7784
43.7843
43.7899
43.7952
43.8003
43.805
43.8094
43.8134
43.8172
43.8207
43.8239
43.8267
43.8293
43.8315
43.8334
43.835
43.8362
43.8372
43.8378
43.8381
50.0505
50.0487
50.0449
50.0394
50.0323
50.0237
50.0138
50.0026
49.9901
49.9765
49.9617
49.9457
49.9287
49.9104
49.8911
49.8706
49.849
49.8263
49.8025
49.7775
49.7514
49.7242
49.6959
49.6665
49.636
49.6045
49.5718
49.5382
49.5034
49.4677
49.4309
49.3931
49.3543
49.3146
49.2739
49.2322
49.1896
49.146
49.1016
49.0563
49.0101
48.9631
48.9152
48.8665
48.8171
48.7668
48.7158
48.664
48.6116
48.5584
48.5045
48.45
48.3948
48.339
48.2826
48.2257
48.1681
48.1101
48.0515
47.9924
47.9328
47.8728
47.8124
47.7515
47.6903
47.6286
47.5667
47.5044
47.4418
47.3789
47.3158
47.2524
47.1889
47.1251
47.0612
46.9971
46.9329
46.8685
46.8041
46.7397
46.6751
46.6106
46.5461
46.4815
46.4171
46.3527
46.2883
46.2241
46.16
46.096
46.0322
45.9686
45.9052
45.842
45.7791
45.7164
45.6539
45.5918
45.53
45.4685
45.4073
45.3466
45.2862
45.2262
45.1666
45.1074
45.0487
44.9904
44.9326
44.8753
44.8185
44.7623
44.7065
44.6513
44.5967
44.5426
44.4891
44.4362
44.3839
44.3322
44.2811
44.2307
44.1809
44.1318
44.0833
44.0355
43.9884
43.942
43.8963
43.8513
43.807
43.7635
43.7206
43.6785
43.6371
43.5965
43.5566
43.5175
43.4791
43.4415
43.4047
43.3686
43.3333
43.2987
43.265
43.232
43.1998
43.1684
43.1377
43.1078
43.0787
43.0504
43.0229
42.9962
42.9702
42.945
42.9206
42.8969
42.874
42.8519
42.8305
42.81
42.7901
42.771
42.7527
42.7351
42.7183
42.7021
42.6868
42.6721
42.6582
42.6449
42.6324
42.6206
42.6095
42.5991
42.5893
42.5803
42.5718
42.5641
42.557
42.5506
42.5448
42.5396
42.535
42.5311
42.5278
42.525
42.5229
42.5213
42.5203
42.5199
42.52
42.5206
42.5218
42.5235
42.5257
42.5285
42.5317
42.5354
42.5396
42.5443
42.5494
42.5549
42.5609
42.5673
42.5741
42.5814
42.589
42.597
42.6054
42.6141
42.6233
42.6327
42.6425
42.6526
42.663
42.6737
42.6847
42.696
42.7076
42.7194
42.7315
42.7438
42.7563
42.7691
42.7821
42.7953
42.8086
42.8222
42.8359
42.8498
42.8638
42.878
42.8923
42.9067
42.9213
42.9359
42.9506
42.9655
42.9804
42.9953
43.0103
43.0254
43.0405
43.0556
43.0708
43.086
43.1012
43.1163
43.1315
43.1466
43.1617
43.1768
43.1918
43.2068
43.2217
43.2365
43.2513
43.266
43.2806
43.2951
43.3095
43.3237
43.3379
43.3519
43.3658
43.3796
43.3932
43.4066
43.4199
43.4331
43.446
43.4588
43.4714
43.4838
43.496
43.5081
43.5199
43.5315
43.5429
43.554
43.565
43.5757
43.5862
43.5964
43.6064
43.6161
43.6256
43.6349
43.6438
43.6526
43.661
43.6692
43.6771
43.6847
43.6921
43.6991
43.7059
43.7124
43.7186
43.7245
43.7301
43.7354
43.7404
43.7451
43.7495
43.7536
43.7574
43.7609
43.764
43.7669
43.7694
43.7716
43.7735
43.7751
43.7764
43.7774
43.778
43.7783
50.0045
50.0027
49.9989
49.9936
49.9865
49.9781
49.9682
49.9571
49.9447
49.9311
49.9163
49.9004
49.8833
49.865
49.8456
49.8251
49.8035
49.7807
49.7568
49.7317
49.7056
49.6784
49.65
49.6206
49.59
49.5584
49.5257
49.492
49.4572
49.4214
49.3846
49.3468
49.3079
49.2681
49.2274
49.1857
49.143
49.0994
49.055
49.0096
48.9634
48.9163
48.8684
48.8197
48.7702
48.7199
48.6688
48.617
48.5645
48.5113
48.4574
48.4028
48.3476
48.2918
48.2354
48.1783
48.1208
48.0627
48.004
47.9449
47.8853
47.8253
47.7648
47.7039
47.6426
47.5809
47.5189
47.4566
47.394
47.3311
47.2679
47.2045
47.1409
47.0771
47.0131
46.949
46.8848
46.8204
46.756
46.6915
46.6269
46.5623
46.4978
46.4332
46.3687
46.3043
46.2399
46.1757
46.1115
46.0475
45.9837
45.9201
45.8566
45.7934
45.7304
45.6677
45.6052
45.5431
45.4812
45.4197
45.3586
45.2978
45.2373
45.1773
45.1177
45.0585
44.9998
44.9415
44.8837
44.8264
44.7696
44.7133
44.6575
44.6023
44.5476
44.4936
44.44
44.3871
44.3348
44.2831
44.232
44.1816
44.1318
44.0827
44.0342
43.9865
43.9393
43.8929
43.8472
43.8022
43.7579
43.7144
43.6715
43.6294
43.588
43.5474
43.5075
43.4684
43.4301
43.3924
43.3556
43.3195
43.2842
43.2497
43.216
43.183
43.1508
43.1194
43.0887
43.0589
43.0298
43.0015
42.974
42.9473
42.9213
42.8961
42.8717
42.8481
42.8252
42.8031
42.7818
42.7612
42.7414
42.7223
42.704
42.6865
42.6696
42.6535
42.6382
42.6235
42.6096
42.5964
42.5839
42.5721
42.5611
42.5506
42.5409
42.5319
42.5235
42.5158
42.5087
42.5023
42.4965
42.4914
42.4869
42.4829
42.4796
42.4769
42.4748
42.4733
42.4723
42.4719
42.472
42.4727
42.4739
42.4756
42.4779
42.4807
42.4839
42.4876
42.4919
42.4965
42.5017
42.5073
42.5133
42.5197
42.5266
42.5338
42.5415
42.5495
42.5579
42.5667
42.5758
42.5853
42.5951
42.6053
42.6157
42.6264
42.6375
42.6488
42.6604
42.6722
42.6843
42.6967
42.7092
42.722
42.735
42.7482
42.7616
42.7752
42.7889
42.8028
42.8169
42.8311
42.8454
42.8599
42.8744
42.8891
42.9038
42.9187
42.9336
42.9486
42.9636
42.9787
42.9938
43.009
43.0242
43.0394
43.0545
43.0697
43.0849
43.1001
43.1152
43.1303
43.1453
43.1603
43.1752
43.1901
43.2049
43.2196
43.2342
43.2487
43.2631
43.2774
43.2915
43.3056
43.3195
43.3332
43.3469
43.3603
43.3736
43.3868
43.3998
43.4125
43.4252
43.4376
43.4498
43.4618
43.4737
43.4853
43.4967
43.5078
43.5188
43.5295
43.54
43.5502
43.5602
43.57
43.5795
43.5887
43.5977
43.6064
43.6149
43.6231
43.631
43.6386
43.646
43.653
43.6598
43.6663
43.6725
43.6784
43.684
43.6893
43.6944
43.6991
43.7035
43.7076
43.7113
43.7148
43.718
43.7208
43.7234
43.7256
43.7275
43.7291
43.7304
43.7313
43.732
43.7323
49.9462
49.9445
49.9408
49.9354
49.9285
49.92
49.9102
49.899
49.8866
49.8729
49.8581
49.8421
49.8249
49.8066
49.7871
49.7666
49.7448
49.722
49.698
49.6729
49.6467
49.6194
49.591
49.5615
49.5309
49.4992
49.4665
49.4327
49.3979
49.362
49.3252
49.2873
49.2484
49.2086
49.1678
49.126
49.0833
49.0397
48.9952
48.9498
48.9036
48.8565
48.8085
48.7598
48.7102
48.6599
48.6088
48.557
48.5044
48.4512
48.3972
48.3426
48.2874
48.2315
48.1751
48.118
48.0604
48.0023
47.9436
47.8845
47.8248
47.7648
47.7042
47.6433
47.582
47.5203
47.4583
47.3959
47.3333
47.2704
47.2072
47.1437
47.0801
47.0163
46.9523
46.8881
46.8238
46.7595
46.695
46.6305
46.5659
46.5013
46.4367
46.3721
46.3076
46.2432
46.1788
46.1145
46.0503
45.9863
45.9225
45.8588
45.7954
45.7321
45.6691
45.6064
45.5439
45.4817
45.4199
45.3584
45.2972
45.2364
45.1759
45.1159
45.0563
44.9971
44.9383
44.88
44.8222
44.7649
44.7081
44.6518
44.596
44.5408
44.4861
44.432
44.3785
44.3256
44.2733
44.2216
44.1705
44.1201
44.0703
44.0212
43.9727
43.925
43.8779
43.8315
43.7858
43.7408
43.6965
43.6529
43.6101
43.568
43.5266
43.486
43.4462
43.407
43.3687
43.3311
43.2943
43.2582
43.2229
43.1884
43.1547
43.1217
43.0896
43.0582
43.0276
42.9977
42.9687
42.9404
42.9129
42.8862
42.8603
42.8351
42.8107
42.7871
42.7643
42.7422
42.7209
42.7003
42.6805
42.6615
42.6432
42.6257
42.6089
42.5928
42.5775
42.5629
42.549
42.5358