/*--------------------------------*- C++ -*----------------------------------*\
| =========                 |                                                 |
| \\      /  F ield         | OpenFOAM: The Open Source CFD Toolbox           |
|  \\    /   O peration     | Version:  2212                                  |
|   \\  /    A nd           | Website:  www.openfoam.com                      |
|    \\/     M anipulation  |                                                 |
\*---------------------------------------------------------------------------*/
FoamFile
{
    version     2.0;
    format      ascii;
    arch        "LSB;label=32;scalar=64";
    class       surfaceScalarField;
    location    "910";
    object      phi;
}
// * * * * * * * * * * * * * * * * * * * * * * * * * * * * * * * * * * * * * //

dimensions      [1 0 -1 0 0 0 0];

oriented        oriented;

internalField   nonuniform List<scalar> 
408640
(
-803.416
800.866
-1583.93
780.128
-2322.42
738.097
-3006.02
683.226
-3630.24
623.848
-4198.21
567.601
-4718.3
519.729
-5201.5
482.834
-5659.02
457.16
-6100.7
441.329
-6534.23
433.171
-6964.96
430.372
-7396.23
430.912
-7829.82
433.237
-8266.47
436.286
-8706.23
439.404
-9148.82
442.241
-9593.82
444.641
-10040.7
446.562
-10489.1
448.023
-10938.5
449.067
-11388.6
449.742
-11839.1
450.095
-12289.6
450.168
-12739.9
449.994
-13189.9
449.603
-13639.3
449.019
-14087.9
448.26
-14535.6
447.344
-14982.2
446.283
-15427.6
445.09
-15871.7
443.774
-16314.4
442.344
-16755.6
440.805
-17195.1
439.166
-17632.9
437.431
-18068.8
435.604
-18502.8
433.69
-18934.9
431.693
-19364.8
429.615
-19792.6
427.46
-20218.2
425.231
-20641.4
422.929
-21062.3
420.557
-21480.8
418.117
-21896.7
415.611
-22310.1
413.04
-22720.8
410.406
-23128.8
407.71
-23534.1
404.955
-23936.6
402.14
-24336.2
399.268
-24732.8
396.34
-25126.5
393.357
-25517.1
390.319
-25904.7
387.228
-26289.1
384.085
-26670.3
380.891
-27048.2
377.647
-27422.9
374.354
-27794.2
371.013
-28162.1
367.624
-28526.6
364.19
-28887.6
360.709
-29245.1
357.184
-29599
353.616
-29949.3
350.004
-30296
346.35
-30638.9
342.656
-30978.1
338.921
-31313.5
335.146
-31645.2
331.333
-31972.9
327.482
-32296.8
323.595
-32616.7
319.671
-32932.7
315.712
-33244.7
311.718
-33552.7
307.691
-33856.6
303.631
-34156.4
299.539
-34452.1
295.416
-34743.6
291.263
-35030.9
287.08
-35314.1
282.869
-35593
278.629
-35867.6
274.363
-36137.9
270.071
-36403.9
265.753
-36665.6
261.411
-36922.8
257.046
-37175.7
252.657
-37424.2
248.247
-37668.3
243.815
-37907.9
239.363
-38143
234.892
-38373.6
230.401
-38599.8
225.893
-38821.4
221.368
-39038.4
216.827
-39250.9
212.271
-39458.8
207.699
-39662.1
203.115
-39860.9
198.517
-40055
193.907
-40244.5
189.285
-40429.3
184.654
-40609.6
180.012
-40785.1
175.362
-40956
170.703
-41122.3
166.037
-41283.8
161.365
-41440.7
156.687
-41592.9
152.003
-41740.4
147.316
-41883.2
142.625
-42021.3
137.932
-42154.7
133.236
-42283.4
128.54
-42407.5
123.843
-42526.8
119.146
-42641.4
114.451
-42751.3
109.757
-42856.5
105.066
-42957.1
100.378
-43052.9
95.6943
-43144.1
91.015
-43230.6
86.341
-43312.4
81.6731
-43389.6
77.012
-43462.1
72.3582
-43529.9
67.7126
-43593.1
63.0756
-43651.7
58.4481
-43705.7
53.8305
-43755
49.2236
-43799.8
44.6281
-43840
40.0444
-43875.6
35.4732
-43906.6
30.9151
-43933.1
26.3708
-43955
21.8407
-43972.5
17.3255
-43985.4
12.8257
-43993.9
8.34186
-43997.8
3.87454
-43997.4
-0.575719
-43992.5
-5.00841
-43983.1
-9.423
-43969.4
-13.819
-43951.3
-18.1959
-43928.8
-22.5533
-43902
-26.8905
-43870.9
-31.2073
-43835.5
-35.5031
-43795.8
-39.7775
-43751.8
-44.03
-43703.6
-48.2603
-43651.2
-52.4679
-43594.6
-56.6524
-43533.9
-60.8133
-43469
-64.9505
-43400
-69.0634
-43326.9
-73.1516
-43249.7
-77.215
-43168.5
-81.253
-43083.3
-85.2654
-42994.1
-89.2518
-42900.9
-93.212
-42803.8
-97.1456
-42702.8
-101.052
-42597.9
-104.932
-42489.1
-108.784
-42376.6
-112.609
-42260.2
-116.405
-42140
-120.174
-42016.1
-123.914
-41888.5
-127.625
-41757.2
-131.308
-41622.3
-134.961
-41483.7
-138.586
-41341.5
-142.181
-41195.8
-145.746
-41046.5
-149.282
-40893.7
-152.787
-40737.5
-156.263
-40577.7
-159.708
-40414.6
-163.123
-40248.1
-166.508
-40078.2
-169.862
-39905
-173.186
-39728.5
-176.478
-39548.8
-179.74
-39365.8
-182.971
-39179.6
-186.171
-38990.2
-189.34
-38797.7
-192.478
-38602.1
-195.585
-38403.4
-198.66
-38201.6
-201.704
-37996.9
-204.717
-37789.1
-207.699
-37578.4
-210.65
-37364.8
-213.569
-37148.3
-216.457
-36928.9
-219.313
-36706.7
-222.139
-36481.7
-224.933
-36254
-227.696
-36023.5
-230.428
-35790.3
-233.128
-35554.4
-235.798
-35315.9
-238.436
-35074.8
-241.044
-34831.1
-243.62
-34584.9
-246.166
-34336.1
-248.681
-34084.8
-251.166
-33831.1
-253.619
-33575
-256.042
-33316.5
-258.435
-33055.6
-260.798
-32792.4
-263.13
-32526.8
-265.432
-32259
-267.704
-31989
-269.946
-31716.7
-272.158
-31442.3
-274.341
-31165.7
-276.494
-30886.9
-278.617
-30606.1
-280.711
-30323.2
-282.777
-30038.3
-284.812
-29751.3
-286.82
-29462.4
-288.798
-29171.6
-290.748
-28878.8
-292.669
-28584.1
-294.561
-28287.5
-296.426
-27989.1
-298.263
-27688.9
-300.071
-27386.9
-301.852
-27083.2
-303.605
-26777.7
-305.331
-26470.5
-307.029
-26161.7
-308.701
-25851.2
-310.345
-25539.1
-311.963
-25225.4
-313.554
-24910.1
-315.118
-24593.3
-316.656
-24275
-318.168
-23955.2
-319.653
-23633.9
-321.113
-23311.2
-322.547
-22987.1
-323.956
-22661.6
-325.339
-22334.7
-326.697
-22006.5
-328.03
-21677
-329.338
-21346.2
-330.621
-21014.1
-331.88
-20680.8
-333.114
-20346.3
-334.324
-20010.6
-335.51
-19673.8
-336.671
-19335.8
-337.809
-18996.7
-338.924
-18656.5
-340.014
-18315.2
-341.082
-17972.9
-342.126
-17629.6
-343.147
-17285.2
-344.145
-16939.9
-345.12
-16593.7
-346.073
-16246.5
-347.003
-15898.4
-347.911
-15549.4
-348.796
-15199.5
-349.659
-14848.8
-350.501
-14497.3
-351.32
-14145
-352.118
-13791.9
-352.894
-13438
-353.649
-13083.4
-354.382
-12728.1
-355.094
-12372.1
-355.785
-12015.4
-356.456
-11658.1
-357.105
-11300.2
-357.733
-10941.6
-358.341
-10582.5
-358.928
-10222.8
-359.495
-9862.52
-360.042
-9501.74
-360.569
-9140.45
-361.075
-8778.67
-361.562
-8416.42
-362.029
-8053.72
-362.476
-7690.6
-362.904
-7327.07
-363.312
-6963.14
-363.701
-6598.85
-364.07
-6234.21
-364.421
-5869.23
-364.752
-5503.95
-365.064
-5138.36
-365.358
-4772.51
-365.633
-4406.39
-365.888
-4040.04
-366.125
-3673.48
-366.343
-3306.71
-366.542
-2939.76
-366.722
-2572.65
-366.883
-2205.4
-367.025
-1838.02
-367.147
-1470.55
-367.25
-1102.99
-367.333
-735.361
-367.397
-367.693
-367.441
-367.465
-790.799
1591.27
-1560.92
1549.86
-2291.4
1468.2
-2969.81
1361.26
-3591.8
1245.46
-4160
1135.44
-4682.14
1041.51
-5168.46
968.799
-5629.57
917.909
-6074.84
886.241
-6511.65
869.624
-6945.21
863.575
-7378.81
864.157
-7814.26
868.33
-8252.33
874.002
-8693.17
879.881
-9136.54
885.263
-9582.09
889.829
-10029.4
893.489
-10478
896.267
-10927.5
898.242
-11377.6
899.504
-11828
900.141
-12278.4
900.231
-12728.6
899.84
-13178.4
899.023
-13627.5
897.825
-14075.9
896.284
-14523.3
894.432
-14969.7
892.295
-15414.8
889.895
-15858.7
887.252
-16301
884.381
-16741.9
881.297
-17181.1
878.011
-17618.5
874.535
-18054.1
870.877
-18487.8
867.045
-18919.5
863.047
-19349.1
858.889
-19776.6
854.578
-20201.8
850.117
-20624.7
845.512
-21045.2
840.767
-21463.3
835.886
-21878.9
830.873
-22291.9
825.731
-22702.3
820.463
-23110
815.072
-23514.9
809.562
-23917.1
803.933
-24316.3
798.19
-24712.6
792.334
-25105.9
786.368
-25496.2
780.293
-25883.4
774.113
-26267.5
767.829
-26648.3
761.442
-27025.9
754.956
-27400.3
748.371
-27771.2
741.69
-28138.8
734.915
-28503
728.047
-28863.7
721.088
-29220.8
714.04
-29574.4
706.905
-29924.4
699.683
-30270.7
692.378
-30613.3
684.991
-30952.2
677.523
-31287.3
669.977
-31618.6
662.353
-31946.1
654.654
-32269.7
646.881
-32589.3
639.035
-32905
631.12
-33216.7
623.135
-33524.3
615.083
-33827.9
606.966
-34127.5
598.785
-34422.8
590.542
-34714.1
582.238
-35001.1
573.875
-35284
565.455
-35562.6
556.98
-35836.9
548.45
-36107
539.869
-36372.7
531.237
-36634.1
522.556
-36891.1
513.827
-37143.8
505.053
-37392
496.236
-37635.8
487.376
-37875.1
478.475
-38110
469.535
-38340.4
460.558
-38566.3
451.546
-38787.6
442.499
-39004.5
433.42
-39216.7
424.31
-39424.4
415.172
-39627.5
406.005
-39826
396.813
-40019.9
387.597
-40209.2
378.358
-40393.9
369.098
-40573.9
359.818
-40749.2
350.521
-40919.9
341.208
-41086
331.88
-41247.3
322.538
-41404
313.186
-41556
303.823
-41703.3
294.452
-41846
285.075
-41983.9
275.692
-42117.2
266.305
-42245.7
256.916
-42369.6
247.526
-42488.7
238.137
-42603.2
228.75
-42713
219.366
-42818.1
209.988
-42918.5
200.616
-43014.2
191.252
-43105.2
181.898
-43191.6
172.554
-43273.3
163.222
-43350.3
153.904
-43422.7
144.6
-43490.4
135.313
-43553.5
126.043
-43612
116.792
-43665.9
107.561
-43715.1
98.3519
-43759.8
89.1648
-43799.9
80.0016
-43835.4
70.8635
-43866.4
61.7515
-43892.8
52.667
-43914.6
43.611
-43932
34.5848
-43944.9
25.5894
-43953.3
16.6259
-43957.2
7.69549
-43956.7
-1.20083
-43951.7
-10.062
-43942.4
-18.887
-43928.6
-27.6748
-43910.5
-36.4244
-43888
-45.1348
-43861.1
-53.8052
-43830
-62.4345
-43794.5
-71.0219
-43754.8
-79.5665
-43710.9
-88.0674
-43662.7
-96.5237
-43610.3
-104.935
-43553.7
-113.299
-43492.9
-121.617
-43428.1
-129.887
-43359.1
-138.109
-43286
-146.281
-43208.9
-154.404
-43127.7
-162.476
-43042.5
-170.496
-42953.3
-178.465
-42860.2
-186.381
-42763.2
-194.244
-42662.2
-202.054
-42557.3
-209.809
-42448.6
-217.509
-42336.1
-225.154
-42219.8
-232.743
-42099.7
-240.276
-41975.9
-247.752
-41848.4
-255.171
-41717.2
-262.532
-41582.3
-269.836
-41443.8
-277.08
-41301.8
-284.266
-41156.1
-291.393
-41006.9
-298.46
-40854.2
-305.468
-40698.1
-312.415
-40538.5
-319.302
-40375.5
-326.129
-40209.1
-332.894
-40039.3
-339.599
-39866.3
-346.242
-39689.9
-352.823
-39510.3
-359.344
-39327.4
-365.802
-39141.4
-372.198
-38952.1
-378.532
-38759.8
-384.804
-38564.3
-391.014
-38365.8
-397.161
-38164.2
-403.246
-37959.6
-409.269
-37752
-415.229
-37541.5
-421.126
-37328.1
-426.961
-37111.7
-432.733
-36892.5
-438.443
-36670.5
-444.09
-36445.7
-449.675
-36218.2
-455.198
-35987.9
-460.658
-35754.9
-466.056
-35519.2
-471.392
-35280.9
-476.666
-35040
-481.878
-34796.5
-487.028
-34550.5
-492.116
-34301.9
-497.143
-34050.9
-502.109
-33797.4
-507.013
-33541.5
-511.856
-33283.2
-516.639
-33022.6
-521.361
-32759.6
-526.022
-32494.3
-530.623
-32226.8
-535.164
-31956.9
-539.645
-31684.9
-544.067
-31410.7
-548.43
-31134.4
-552.733
-30855.9
-556.977
-30575.4
-561.163
-30292.7
-565.29
-30008.1
-569.36
-29721.4
-573.371
-29432.7
-577.325
-29142.1
-581.222
-28849.6
-585.062
-28555.2
-588.845
-28258.9
-592.571
-27960.8
-596.242
-27660.9
-599.857
-27359.2
-603.416
-27055.7
-606.92
-26750.6
-610.369
-26443.7
-613.764
-26135.1
-617.104
-25824.9
-620.391
-25513.1
-623.624
-25199.7
-626.803
-24884.8
-629.93
-24568.3
-633.004
-24250.3
-636.025
-23930.8
-638.995
-23609.8
-641.912
-23287.4
-644.779
-22963.6
-647.594
-22638.4
-650.358
-22311.9
-653.072
-21984
-655.736
-21654.8
-658.35
-21324.4
-660.915
-20992.6
-663.431
-20659.7
-665.897
-20325.5
-668.315
-19990.1
-670.685
-19653.6
-673.007
-19316
-675.281
-18977.2
-677.508
-18637.3
-679.688
-18296.4
-681.821
-17954.4
-683.908
-17611.5
-685.948
-17267.5
-687.943
-16922.5
-689.892
-16576.6
-691.796
-16229.7
-693.655
-15882
-695.469
-15533.3
-697.238
-15183.8
-698.964
-14833.5
-700.645
-14482.3
-702.283
-14130.4
-703.878
-13777.6
-705.429
-13424.1
-706.937
-13069.9
-708.403
-12715
-709.826
-12359.3
-711.207
-12003
-712.546
-11646.1
-713.844
-11288.5
-715.1
-10930.3
-716.315
-10571.6
-717.489
-10212.2
-718.622
-9852.32
-719.714
-9491.91
-720.767
-9130.99
-721.779
-8769.58
-722.752
-8407.71
-723.685
-8045.39
-724.578
-7682.64
-725.433
-7319.48
-726.249
-6955.93
-727.026
-6592.02
-727.764
-6227.75
-728.465
-5863.15
-729.127
-5498.24
-729.751
-5133.04
-730.338
-4767.56
-730.887
-4401.83
-731.398
-4035.86
-731.871
-3669.67
-732.307
-3303.28
-732.705
-2936.71
-733.065
-2569.98
-733.387
-2203.11
-733.67
-1836.12
-733.914
-1469.02
-734.12
-1101.84
-734.286
-734.602
-734.413
-367.315
-734.502
-734.554
-774.278
2365.16
-1529.33
2304.53
-2247.96
2186.44
-2918.72
2031.64
-3537.32
1863.68
-4105.83
1703.58
-4631
1566.31
-5122.04
1459.48
-5588.61
1384.12
-6039.37
1336.65
-6481.26
1311.16
-6919.24
1301.2
-7356.53
1301.09
-7794.96
1306.4
-8235.37
1314.06
-8678.02
1322.17
-9122.79
1329.67
-9569.37
1336.06
-10017.4
1341.19
-10466.6
1345.08
-10916.5
1347.82
-11366.9
1349.53
-11817.5
1350.35
-12268
1350.38
-12718.2
1349.7
-13167.9
1348.4
-13617
1346.55
-14065.2
1344.19
-14512.5
1341.37
-14958.7
1338.13
-15403.6
1334.5
-15847.2
1330.51
-16289.4
1326.19
-16730
1321.54
-17168.9
1316.6
-17606.1
1311.37
-18041.4
1305.87
-18474.8
1300.12
-18906.2
1294.11
-19335.5
1287.87
-19762.7
1281.4
-20187.6
1274.7
-20610.2
1267.79
-21030.5
1260.67
-21448.2
1253.35
-21863.5
1245.82
-22276.2
1238.11
-22686.3
1230.21
-23093.7
1222.12
-23498.3
1213.85
-23900.1
1205.41
-24299
1196.79
-24695
1188.01
-25088
1179.06
-25478
1169.95
-25864.9
1160.68
-26248.6
1151.26
-26629.1
1141.68
-27006.4
1131.95
-27380.5
1122.08
-27751.1
1112.06
-28118.4
1101.89
-28482.3
1091.59
-28842.6
1081.16
-29199.5
1070.59
-29552.7
1059.89
-29902.4
1049.06
-30248.4
1038.1
-30590.8
1027.03
-30929.3
1015.83
-31264.2
1004.51
-31595.2
993.078
-31922.3
981.532
-32245.6
969.875
-32565
958.111
-32880.4
946.241
-33191.8
934.267
-33499.1
922.193
-33802.5
910.021
-34101.7
897.752
-34396.8
885.391
-34687.8
872.939
-34974.6
860.399
-35257.1
847.773
-35535.5
835.064
-35809.6
822.274
-36079.3
809.406
-36344.8
796.462
-36606
783.444
-36862.7
770.356
-37115.1
757.2
-37363.1
743.978
-37606.7
730.692
-37845.8
717.345
-38080.4
703.941
-38310.5
690.48
-38536.2
676.965
-38757.3
663.4
-38973.9
649.786
-39185.9
636.127
-39393.4
622.423
-39596.3
608.678
-39794.6
594.895
-39988.3
581.075
-40177.4
567.222
-40361.8
553.337
-40541.6
539.423
-40716.8
525.482
-40887.3
511.517
-41053.1
497.53
-41214.3
483.524
-41370.8
469.501
-41522.6
455.462
-41669.8
441.411
-41812.2
427.35
-41950
413.281
-42083.1
399.206
-42211.5
385.128
-42335.2
371.048
-42454.2
356.97
-42568.5
342.895
-42678.1
328.826
-42783.1
314.764
-42883.3
300.712
-42978.9
286.671
-43069.8
272.645
-43156
258.635
-43237.6
244.643
-43314.5
230.672
-43386.8
216.722
-43454.4
202.797
-43517.4
188.899
-43575.8
175.028
-43629.5
161.187
-43678.7
147.379
-43723.2
133.604
-43763.2
119.865
-43798.7
106.164
-43829.5
92.5019
-43855.9
78.881
-43877.7
65.303
-43895
51.7696
-43907.8
38.2825
-43916.1
24.8432
-43919.9
11.4536
-43919.4
-1.88489
-43914.3
-15.1706
-43904.9
-28.4021
-43891.1
-41.5778
-43872.9
-54.6962
-43850.4
-67.7559
-43823.5
-80.7554
-43792.4
-93.6934
-43756.9
-106.568
-43717.2
-119.379
-43673.2
-132.125
-43625
-144.803
-43572.5
-157.414
-43516
-169.955
-43455.2
-182.425
-43390.3
-194.825
-43321.3
-207.151
-43248.3
-219.404
-43171.2
-231.581
-43090
-243.683
-43004.8
-255.708
-42915.7
-267.655
-42822.6
-279.524
-42725.6
-291.313
-42624.6
-303.021
-42519.8
-314.648
-42411.2
-326.192
-42298.7
-337.654
-42182.4
-349.032
-42062.4
-360.325
-41938.6
-371.533
-41811.2
-382.656
-41680
-393.692
-41545.2
-404.641
-41406.8
-415.502
-41264.8
-426.275
-41119.3
-436.96
-40970.2
-447.555
-40817.6
-458.061
-40661.5
-468.476
-40502
-478.801
-40339.1
-489.035
-40172.8
-499.178
-40003.1
-509.229
-39830.2
-519.188
-39653.9
-529.055
-39474.4
-538.83
-39291.7
-548.512
-39105.8
-558.101
-38916.7
-567.596
-38724.4
-576.999
-38529.1
-586.308
-38330.7
-595.524
-38129.3
-604.646
-37924.8
-613.675
-37717.4
-622.609
-37507
-631.45
-37293.7
-640.198
-37077.6
-648.851
-36858.5
-657.411
-36636.7
-665.877
-36412.1
-674.249
-36184.7
-682.528
-35954.6
-690.713
-35721.7
-698.805
-35486.3
-706.804
-35248.1
-714.71
-35007.4
-722.523
-34764.1
-730.244
-34518.3
-737.872
-34269.9
-745.407
-34019.1
-752.851
-33765.8
-760.203
-33510.2
-767.464
-33252.1
-774.633
-32991.6
-781.711
-32728.9
-788.699
-32463.8
-795.596
-32196.4
-802.403
-31926.9
-809.121
-31655.1
-815.749
-31381.1
-822.288
-31105
-828.739
-30826.8
-835.101
-30546.4
-841.376
-30264
-847.563
-29979.6
-853.663
-29693.2
-859.676
-29404.8
-865.603
-29114.5
-871.445
-28822.2
-877.2
-28528
-882.871
-28232
-888.457
-27934.2
-893.96
-27634.5
-899.378
-27333.1
-904.714
-27029.9
-909.966
-26725
-915.136
-26418.4
-920.225
-26110.1
-925.232
-25800.2
-930.158
-25488.7
-935.004
-25175.5
-939.77
-24860.9
-944.457
-24544.6
-949.064
-24226.9
-953.594
-23907.7
-958.045
-23587
-962.418
-23264.9
-966.715
-22941.4
-970.934
-22616.6
-975.078
-22290.3
-979.146
-21962.7
-983.139
-21633.9
-987.058
-21303.7
-990.902
-20972.3
-994.673
-20639.6
-998.37
-20305.8
-1001.99
-19970.7
-1005.55
-19634.5
-1009.03
-19297.2
-1012.44
-18958.8
-1015.77
-18619.2
-1019.04
-18278.6
-1022.24
-17937
-1025.37
-17594.3
-1028.42
-17250.6
-1031.41
-16906
-1034.34
-16560.4
-1037.19
-16213.9
-1039.98
-15866.5
-1042.69
-15518.2
-1045.35
-15169
-1047.93
-14819
-1050.45
-14468.2
-1052.91
-14116.5
-1055.3
-13764.1
-1057.62
-13411
-1059.88
-13057.1
-1062.08
-12702.5
-1064.21
-12347.2
-1066.28
-11991.3
-1068.29
-11634.7
-1070.24
-11277.4
-1072.12
-10919.6
-1073.94
-10561.2
-1075.7
-10202.2
-1077.4
-9842.64
-1079.04
-9482.58
-1080.61
-9122.01
-1082.13
-8760.96
-1083.59
-8399.44
-1084.99
-8037.47
-1086.33
-7675.08
-1087.61
-7312.28
-1088.83
-6949.09
-1089.99
-6585.53
-1091.1
-6221.62
-1092.15
-5857.38
-1093.14
-5492.83
-1094.08
-5127.99
-1094.96
-4762.87
-1095.78
-4397.49
-1096.55
-4031.88
-1097.26
-3666.05
-1097.91
-3300.03
-1098.51
-2933.82
-1099.05
-2567.45
-1099.53
-2200.94
-1099.95
-1834.31
-1100.32
-1467.58
-1100.63
-1100.76
-1100.88
-733.876
-1101.07
-366.95
-1101.2
-1101.28
-751.904
3116.67
-1486.77
3039.01
-2189.56
2888.85
-2850.13
2691.84
-3464.3
2477.48
-4033.39
2272.31
-4562.87
2095.43
-5060.52
1956.77
-5534.74
1857.97
-5993.22
1794.77
-6442.24
1759.83
-6886.46
1745.06
-7328.97
1743.25
-7771.65
1748.72
-8215.45
1757.51
-8660.76
1767.13
-9107.6
1776.15
-9555.79
1783.9
-10005.1
1790.13
-10455.2
1794.84
-10905.9
1798.12
-11356.8
1800.12
-11807.8
1800.97
-12258.6
1800.82
-12709
1799.77
-13158.8
1797.91
-13608
1795.34
-14056.2
1792.11
-14503.5
1788.28
-14949.6
1783.9
-15394.5
1779.01
-15837.9
1773.65
-16280
1767.85
-16720.4
1761.63
-17159.1
1755.01
-17596.1
1748.02
-18031.3
1740.67
-18464.5
1732.98
-18895.6
1724.96
-19324.7
1716.62
-19751.6
1707.98
-20176.3
1699.04
-20598.7
1689.82
-21018.7
1680.32
-21436.2
1670.55
-21851.2
1660.52
-22263.7
1650.23
-22673.5
1639.68
-23080.6
1628.9
-23484.9
1617.87
-23886.4
1606.62
-24285.1
1595.13
-24680.8
1583.42
-25073.5
1571.48
-25463.2
1559.34
-25849.9
1546.98
-26233.3
1534.41
-26613.6
1521.64
-26990.6
1508.67
-27364.3
1495.5
-27734.7
1482.14
-28101.7
1468.6
-28465.3
1454.87
-28825.4
1440.95
-29182
1426.86
-29535
1412.6
-29884.4
1398.16
-30230.1
1383.56
-30572.2
1368.79
-30910.5
1353.86
-31245
1338.77
-31575.8
1323.53
-31902.7
1308.14
-32225.7
1292.6
-32544.8
1276.92
-32859.9
1261.1
-33171
1245.14
-33478.2
1229.04
-33781.2
1212.82
-34080.2
1196.46
-34375.1
1179.98
-34665.8
1163.39
-34952.3
1146.67
-35234.6
1129.84
-35512.7
1112.9
-35786.5
1095.85
-36056.1
1078.7
-36321.3
1061.44
-36582.2
1044.09
-36838.7
1026.64
-37090.9
1009.11
-37338.6
991.483
-37582
973.774
-37820.8
955.984
-38055.2
938.116
-38285.2
920.173
-38510.6
902.159
-38731.5
884.078
-38947.8
865.932
-39159.7
847.724
-39366.9
829.458
-39569.6
811.138
-39767.7
792.766
-39961.2
774.345
-40150
755.88
-40334.3
737.372
-40513.9
718.826
-40688.8
700.245
-40859.1
681.631
-41024.8
662.988
-41185.8
644.319
-41342.1
625.627
-41493.7
606.915
-41640.7
588.187
-41783
569.445
-41920.6
550.693
-42053.5
531.933
-42181.7
513.168
-42305.2
494.403
-42424.1
475.638
-42538.2
456.878
-42647.7
438.126
-42752.5
419.383
-42852.6
400.654
-42948
381.94
-43038.7
363.246
-43124.8
344.573
-43206.3
325.924
-43283
307.302
-43355.2
288.71
-43422.7
270.15
-43485.5
251.626
-43543.8
233.138
-43597.4
214.692
-43646.4
196.287
-43690.9
177.928
-43730.8
159.617
-43766.1
141.356
-43796.9
123.147
-43823.1
104.993
-43844.8
86.8968
-43862
68.8596
-43874.7
50.8842
-43882.9
32.9727
-43886.7
15.1272
-43886
-2.64993
-43881
-20.3568
-43871.5
-37.9912
-43857.6
-55.5513
-43839.3
-73.0349
-43816.7
-90.4403
-43789.8
-107.765
-43758.6
-125.008
-43723.1
-142.168
-43683.3
-159.241
-43639.2
-176.227
-43591
-193.124
-43538.5
-209.931
-43481.9
-226.644
-43421.1
-243.264
-43356.2
-259.789
-43287.2
-276.217
-43214.1
-292.546
-43137
-308.775
-43055.8
-324.903
-42970.6
-340.929
-42881.5
-356.851
-42788.4
-372.668
-42691.4
-388.378
-42590.4
-403.982
-42485.6
-419.477
-42377
-434.862
-42264.6
-450.136
-42148.3
-465.299
-42028.3
-480.349
-41904.6
-495.286
-41777.1
-510.109
-41646
-524.816
-41511.3
-539.407
-41372.9
-553.881
-41230.9
-568.238
-41085.4
-582.476
-40936.4
-596.596
-40783.9
-610.596
-40627.9
-624.476
-40468.4
-638.235
-40305.6
-651.873
-40139.3
-665.389
-39969.8
-678.783
-39796.9
-692.055
-39620.7
-705.204
-39441.3
-718.229
-39258.7
-731.131
-39072.8
-743.909
-38883.8
-756.563
-38691.7
-769.093
-38496.5
-781.498
-38298.2
-793.779
-38096.9
-805.935
-37892.5
-817.966
-37685.2
-829.872
-37475
-841.653
-37261.8
-853.309
-37045.8
-864.84
-36826.9
-876.246
-36605.2
-887.527
-36380.7
-898.683
-36153.4
-909.715
-35923.5
-920.622
-35690.8
-931.405
-35455.5
-942.064
-35217.5
-952.599
-34976.9
-963.01
-34733.8
-973.297
-34488.1
-983.461
-34240
-993.503
-33989.3
-1003.42
-33736.2
-1013.22
-33480.7
-1022.89
-33222.8
-1032.44
-32962.5
-1041.88
-32699.9
-1051.19
-32435.1
-1060.38
-32167.9
-1069.45
-31898.5
-1078.4
-31627
-1087.23
-31353.2
-1095.94
-31077.3
-1104.54
-30799.3
-1113.02
-30519.1
-1121.38
-30237
-1129.62
-29952.8
-1137.75
-29666.6
-1145.76
-29378.4
-1153.66
-29088.3
-1161.44
-28796.2
-1169.11
-28502.3
-1176.67
-28206.5
-1184.11
-27908.9
-1191.44
-27609.5
-1198.66
-27308.3
-1205.77
-27005.4
-1212.77
-26700.7
-1219.66
-26394.4
-1226.44
-26086.3
-1233.11
-25776.7
-1239.67
-25465.4
-1246.13
-25152.5
-1252.48
-24838.1
-1258.72
-24522.2
-1264.86
-24204.7
-1270.89
-23885.8
-1276.83
-23565.4
-1282.65
-23243.6
-1288.38
-22920.3
-1294
-22595.7
-1299.52
-22269.8
-1304.94
-21942.5
-1310.26
-21613.9
-1315.48
-21284
-1320.6
-20952.9
-1325.63
-20620.5
-1330.55
-20287
-1335.38
-19952.2
-1340.11
-19616.3
-1344.75
-19279.3
-1349.29
-18941.1
-1353.74
-18601.9
-1358.09
-18261.6
-1362.35
-17920.2
-1366.52
-17577.9
-1370.59
-17234.5
-1374.58
-16890.2
-1378.47
-16544.9
-1382.27
-16198.7
-1385.98
-15851.6
-1389.61
-15503.6
-1393.14
-15154.8
-1396.59
-14805.1
-1399.94
-14454.6
-1403.21
-14103.3
-1406.4
-13751.2
-1409.5
-13398.4
-1412.51
-13044.8
-1415.43
-12690.5
-1418.28
-12335.6
-1421.03
-11980
-1423.71
-11623.7
-1426.3
-11266.8
-1428.81
-10909.3
-1431.23
-10551.2
-1433.58
-10192.5
-1435.84
-9833.34
-1438.02
-9473.61
-1440.12
-9113.38
-1442.14
-8752.67
-1444.09
-8391.49
-1445.95
-8029.86
-1447.73
-7667.81
-1449.44
-7305.35
-1451.07
-6942.5
-1452.62
-6579.29
-1454.1
-6215.72
-1455.49
-5851.83
-1456.82
-5487.62
-1458.06
-5123.12
-1459.23
-4758.35
-1460.33
-4393.32
-1461.35
-4028.06
-1462.3
-3662.57
-1463.17
-3296.89
-1463.96
-2931.04
-1464.68
-2565.02
-1465.32
-2198.85
-1465.89
-1832.57
-1466.38
-1466.18
-1466.79
-1099.72
-1467.12
-733.182
-1467.38
-366.605
-1467.55
-1467.65
-730.795
3847.08
-1446.39
3754.22
-2133.83
3575.9
-2784.18
3341.81
-3393.45
3086.38
-3962.37
2840.85
-4495.29
2627.99
-4998.75
2459.86
-5479.95
2338.81
-5945.67
2260.13
-6401.57
2215.37
-6851.93
2195.06
-7299.71
2190.67
-7746.78
2195.43
-8194.17
2204.55
-8642.37
2214.98
-9091.53
2224.95
-9541.57
2233.59
-9992.33
2240.54
-10443.6
2245.76
-10895.2
2249.34
-11346.8
2251.42
-11798.4
2252.16
-12249.6
2251.7
-12700.4
2250.17
-13150.5
2247.67
-13599.8
2244.3
-14048.2
2240.14
-14495.5
2235.26
-14941.6
2229.7
-15386.5
2223.52
-15829.9
2216.75
-16271.9
2209.45
-16712.2
2201.62
-17150.8
2193.31
-17587.7
2184.54
-18022.7
2175.33
-18455.7
2165.69
-18886.8
2155.64
-19315.7
2145.2
-19742.4
2134.38
-20166.9
2123.19
-20589
2111.65
-21008.8
2099.76
-21426.1
2087.54
-21840.9
2074.99
-22253.1
2062.12
-22662.7
2048.94
-23069.6
2035.45
-23473.7
2021.67
-23875
2007.59
-24273.4
1993.23
-24668.9
1978.58
-25061.4
1963.66
-25450.9
1948.48
-25837.2
1933.03
-26220.4
1917.32
-26600.5
1901.36
-26977.2
1885.14
-27350.7
1868.69
-27720.9
1851.99
-28087.6
1835.06
-28451
1817.89
-28810.8
1800.5
-29167.1
1782.89
-29519.9
1765.06
-29869
1747.02
-30214.5
1728.77
-30556.4
1710.31
-30894.4
1691.65
-31228.7
1672.79
-31559.2
1653.75
-31885.9
1634.51
-32208.6
1615.09
-32527.5
1595.49
-32842.4
1575.72
-33153.3
1555.77
-33460.2
1535.65
-33763
1515.37
-34061.7
1494.94
-34356.4
1474.34
-34646.8
1453.6
-34933.1
1432.71
-35215.2
1411.68
-35493.1
1390.5
-35766.7
1369.2
-36036
1347.76
-36301
1326.2
-36561.7
1304.51
-36818
1282.71
-37069.9
1260.8
-37317.5
1238.77
-37560.6
1216.64
-37799.2
1194.41
-38033.4
1172.08
-38263.1
1149.66
-38488.3
1127.14
-38709
1104.55
-38925.2
1081.87
-39136.8
1059.12
-39343.9
1036.29
-39546.3
1013.4
-39744.2
990.438
-39937.5
967.419
-40126.2
944.343
-40310.2
921.216
-40489.6
898.04
-40664.4
874.819
-40834.5
851.559
-41000
828.262
-41160.8
804.932
-41317
781.574
-41468.4
758.192
-41615.2
734.788
-41757.3
711.368
-41894.7
687.935
-42027.5
664.492
-42155.5
641.044
-42278.9
617.594
-42397.6
594.145
-42511.5
570.703
-42620.9
547.27
-42725.5
523.849
-42825.4
500.445
-42920.7
477.061
-43011.3
453.701
-43097.3
430.367
-43178.6
407.064
-43255.2
383.794
-43327.2
360.562
-43394.6
337.371
-43457.3
314.223
-43515.4
291.122
-43568.9
268.072
-43617.8
245.075
-43662.2
222.134
-43701.9
199.253
-43737.1
176.435
-43767.8
153.683
-43793.9
130.999
-43815.5
108.387
-43832.6
85.8486
-43845.2
63.3879
-43853.4
41.0071
-43857
18.7089
-43856.3
-3.50393
-43851.1
-25.6288
-43841.5
-47.6632
-43827.6
-69.6045
-43809.3
-91.4503
-43786.6
-113.198
-43759.6
-134.846
-43728.3
-156.391
-43692.7
-177.831
-43652.9
-199.164
-43608.8
-220.388
-43560.5
-241.5
-43508
-262.499
-43451.3
-283.382
-43390.5
-304.148
-43325.5
-324.795
-43256.5
-345.32
-43183.4
-365.723
-43106.2
-386
-43025
-406.151
-42939.8
-426.174
-42850.6
-446.068
-42757.5
-465.83
-42660.4
-485.459
-42559.5
-504.954
-42454.7
-524.313
-42346.1
-543.536
-42233.6
-562.62
-42117.4
-581.564
-41997.4
-600.368
-41873.6
-619.03
-41746.2
-637.549
-41615.1
-655.924
-41480.4
-674.153
-41342.1
-692.237
-41200.1
-710.174
-41054.6
-727.963
-40905.6
-745.603
-40753.1
-763.094
-40597.2
-780.435
-40437.8
-797.625
-40275
-814.663
-40108.8
-831.55
-39939.3
-848.283
-39766.5
-864.864
-39590.4
-881.291
-39411
-897.564
-39228.4
-913.683
-39042.7
-929.646
-38853.7
-945.455
-38661.7
-961.108
-38466.5
-976.606
-38268.3
-991.948
-38067.1
-1007.13
-37862.9
-1022.16
-37655.6
-1037.04
-37445.5
-1051.76
-37232.4
-1066.32
-37016.5
-1080.72
-36797.7
-1094.97
-36576.1
-1109.06
-36351.8
-1123
-36124.6
-1136.78
-35894.8
-1150.41
-35662.2
-1163.88
-35427
-1177.19
-35189.2
-1190.35
-34948.8
-1203.36
-34705.8
-1216.21
-34460.3
-1228.91
-34212.2
-1241.45
-33961.7
-1253.84
-33708.8
-1266.08
-33453.4
-1278.17
-33195.7
-1290.1
-32935.6
-1301.88
-32673.2
-1313.51
-32408.4
-1324.99
-32141.5
-1336.32
-31872.3
-1347.5
-31600.9
-1358.54
-31327.3
-1369.42
-31051.5
-1380.16
-30773.7
-1390.75
-30493.8
-1401.19
-30211.8
-1411.49
-29927.8
-1421.64
-29641.8
-1431.65
-29353.8
-1441.51
-29063.9
-1451.23
-28772.1
-1460.81
-28478.3
-1470.25
-28182.8
-1479.55
-27885.4
-1488.71
-27586.2
-1497.72
-27285.2
-1506.6
-26982.5
-1515.35
-26678
-1523.95
-26371.9
-1532.42
-26064.1
-1540.75
-25754.7
-1548.95
-25443.7
-1557.02
-25131
-1564.95
-24816.9
-1572.75
-24501.2
-1580.41
-24183.9
-1587.95
-23865.2
-1595.36
-23545.1
-1602.64
-23223.5
-1609.79
-22900.6
-1616.81
-22576.2
-1623.71
-22250.5
-1630.48
-21923.5
-1637.12
-21595.1
-1643.64
-21265.5
-1650.04
-20934.7
-1656.31
-20602.6
-1662.47
-20269.3
-1668.5
-19934.8
-1674.41
-19599.2
-1680.2
-19262.4
-1685.87
-18924.6
-1691.43
-18585.6
-1696.86
-18245.6
-1702.18
-17904.5
-1707.39
-17562.4
-1712.48
-17219.4
-1717.45
-16875.3
-1722.31
-16530.4
-1727.06
-16184.4
-1731.7
-15837.6
-1736.22
-15489.9
-1740.64
-15141.4
-1744.94
-14792
-1749.13
-14441.8
-1753.22
-14090.8
-1757.2
-13739
-1761.06
-13386.5
-1764.83
-13033.2
-1768.48
-12679.3
-1772.03
-12324.6
-1775.48
-11969.3
-1778.82
-11613.3
-1782.05
-11256.8
-1785.18
-10899.6
-1788.21
-10541.8
-1791.14
-10183.4
-1793.97
-9824.56
-1796.69
-9465.16
-1799.32
-9105.24
-1801.84
-8744.85
-1804.27
-8383.98
-1806.59
-8022.68
-1808.82
-7660.95
-1810.95
-7298.81
-1812.99
-6936.28
-1814.92
-6573.39
-1816.77
-6210.15
-1818.51
-5846.58
-1820.16
-5482.7
-1821.72
-5118.53
-1823.18
-4754.08
-1824.55
-4389.38
-1825.83
-4024.44
-1827.01
-3659.29
-1828.1
-3293.94
-1829.09
-2928.4
-1829.99
-2562.71
-1830.79
-2196.88
-1831.5
-1830.92
-1832.11
-1464.87
-1832.62
-1098.73
-1833.03
-732.522
-1833.35
-366.273
-1833.58
-1833.7
-709.441
4556.13
-1405.61
4450
-2077.43
4247.34
-2717.15
3981.15
-3321
3689.86
-3889.2
3408.69
-4425.1
3163.53
-4934.03
2968.43
-5422.05
2826.48
-5895.02
2732.74
-6357.94
2677.93
-6814.7
2651.47
-7268.08
2643.7
-7719.9
2646.89
-8171.25
2655.55
-8622.7
2666.08
-9074.51
2676.4
-9526.71
2685.43
-9979.22
2692.7
-10431.9
2698.11
-10884.7
2701.72
-11337.2
2703.67
-11789.5
2704.11
-12241.4
2703.19
-12692.6
2701.06
-13143.1
2697.82
-13592.7
2693.58
-14041.4
2688.42
-14488.9
2682.41
-14935.1
2675.62
-15380.1
2668.1
-15823.6
2659.9
-16265.5
2651.06
-16705.8
2641.61
-17144.4
2631.58
-17581.2
2621.01
-18016.2
2609.9
-18449.1
2598.3
-18880
2586.21
-19308.8
2573.66
-19735.4
2560.65
-20159.8
2547.21
-20581.8
2533.34
-21001.4
2519.06
-21418.6
2504.37
-21833.2
2489.3
-22245.3
2473.85
-22654.7
2458.02
-23061.4
2441.82
-23465.3
2425.27
-23866.4
2408.38
-24264.6
2391.13
-24659.9
2373.56
-25052.2
2355.65
-25441.5
2337.43
-25827.6
2318.88
-26210.7
2300.03
-26590.5
2280.87
-26967.1
2261.41
-27340.3
2241.67
-27710.3
2221.63
-28076.8
2201.31
-28440
2180.71
-28799.6
2159.85
-29155.7
2138.71
-29508.3
2117.32
-29857.2
2095.67
-30202.5
2073.77
-30544.1
2051.62
-30882
2029.23
-31216.1
2006.61
-31546.4
1983.75
-31872.8
1960.67
-32195.3
1937.37
-32514
1913.85
-32828.7
1890.12
-33139.4
1866.19
-33446
1842.06
-33748.7
1817.73
-34047.2
1793.2
-34341.6
1768.5
-34631.9
1743.61
-34918
1718.54
-35199.9
1693.31
-35477.5
1667.91
-35750.9
1642.34
-36020
1616.62
-36284.8
1590.75
-36545.3