/*--------------------------------*- C++ -*----------------------------------*\
| =========                 |                                                 |
| \\      /  F ield         | OpenFOAM: The Open Source CFD Toolbox           |
|  \\    /   O peration     | Version:  2212                                  |
|   \\  /    A nd           | Website:  www.openfoam.com                      |
|    \\/     M anipulation  |                                                 |
\*---------------------------------------------------------------------------*/
FoamFile
{
    version     2.0;
    format      ascii;
    arch        "LSB;label=32;scalar=64";
    class       surfaceScalarField;
    location    "720";
    object      phi;
}
// * * * * * * * * * * * * * * * * * * * * * * * * * * * * * * * * * * * * * //

dimensions      [1 0 -1 0 0 0 0];

oriented        oriented;

internalField   nonuniform List<scalar> 
408640
(
-1138.64
1136.2
-2242.69
1103.67
-3282.82
1039.74
-4242
958.808
-5117.25
874.884
-5916.99
799.394
-6656.29
738.949
-7352.2
695.571
-8020.35
667.811
-8673.11
652.415
-9319.11
645.667
-9963.72
644.272
-10609.8
645.72
-11258.4
648.325
-11909.8
651.075
-12563.6
653.44
-13219.1
655.192
-13875.8
656.275
-14532.8
656.714
-15189.7
656.573
-15846
655.918
-16501.1
654.816
-17154.8
653.322
-17806.6
651.483
-18456.2
649.337
-19103.5
646.916
-19748.1
644.245
-20389.7
641.348
-21028.3
638.24
-21663.6
634.938
-22295.4
631.454
-22923.5
627.8
-23547.8
623.984
-24168.1
620.016
-24784.4
615.902
-25396.3
611.65
-26003.9
607.264
-26607
602.751
-27205.4
598.115
-27799.1
593.361
-28387.9
588.493
-28971.7
583.514
-29550.5
578.429
-30124
573.24
-30692.3
567.952
-31255.2
562.566
-31812.6
557.087
-32364.4
551.517
-32910.6
545.858
-33451
540.114
-33985.6
534.288
-34514.3
528.381
-35037
522.396
-35553.6
516.337
-36064.1
510.204
-36568.4
504.002
-37066.4
497.732
-37558.1
491.396
-38043.4
484.998
-38522.2
478.538
-38994.5
472.021
-39460.2
465.447
-39919.4
458.819
-40371.8
452.14
-40817.5
445.412
-41256.4
438.637
-41688.5
431.817
-42113.7
424.954
-42532
418.051
-42943.4
411.109
-43347.8
404.132
-43745.2
397.12
-44135.5
390.077
-44518.8
383.005
-44894.9
375.904
-45263.9
368.778
-45625.8
361.629
-45980.5
354.459
-46328
347.269
-46668.3
340.062
-47001.4
332.84
-47327.3
325.604
-47645.8
318.357
-47957.2
311.101
-48261.2
303.837
-48558
296.568
-48847.5
289.295
-49129.8
282.02
-49404.7
274.746
-49672.4
267.473
-49932.8
260.203
-50186
252.94
-50431.9
245.683
-50670.5
238.435
-50901.9
231.197
-51126
223.972
-51343
216.761
-51552.7
209.564
-51755.3
202.385
-51950.7
195.225
-52139
188.084
-52320.1
180.965
-52494.1
173.87
-52661.1
166.798
-52821
159.753
-52973.9
152.734
-53119.8
145.744
-53258.7
138.784
-53390.7
131.856
-53515.8
124.959
-53634.1
118.097
-53745.5
111.269
-53850.1
104.477
-53947.9
97.7225
-54039.1
91.0061
-54123.5
84.3289
-54201.3
77.6921
-54272.5
71.0967
-54337.2
64.5435
-54395.3
58.0336
-54447
51.5679
-54492.2
45.1472
-54531.1
38.7724
-54563.6
32.4444
-54589.9
26.1638
-54609.9
19.9315
-54623.7
13.7482
-54631.4
7.61457
-54633
1.53129
-54628.6
-4.50101
-54618.2
-10.4817
-54601.8
-16.4102
-54579.6
-22.2861
-54551.5
-28.1086
-54517.7
-33.8775
-54478.2
-39.5921
-54433
-45.2522
-54382.1
-50.8572
-54325.8
-56.4068
-54263.9
-61.9006
-54196.6
-67.3383
-54123.9
-72.7197
-54045.9
-78.0443
-53962.6
-83.3121
-53874.1
-88.5227
-53780.4
-93.676
-53681.7
-98.7718
-53577.9
-103.81
-53469.1
-108.79
-53355.4
-113.713
-53236.8
-118.577
-53113.4
-123.384
-52985.3
-128.132
-52852.5
-132.822
-52715
-137.454
-52572.9
-142.029
-52426.4
-146.545
-52275.4
-151.003
-52119.9
-155.403
-51960.2
-159.746
-51796.1
-164.031
-51627.8
-168.258
-51455.4
-172.428
-51278.8
-176.541
-51098.1
-180.597
-50913.5
-184.596
-50724.9
-188.539
-50532.5
-192.425
-50336.2
-196.255
-50136.1
-200.03
-49932.3
-203.749
-49724.8
-207.412
-49513.7
-211.021
-49299.1
-214.575
-49081
-218.075
-48859.4
-221.521
-48634.4
-224.913
-48406.1
-228.252
-48174.5
-231.538
-47939.7
-234.772
-47701.6
-237.953
-47460.5
-241.083
-47216.3
-244.161
-46969
-247.189
-46718.8
-250.166
-46465.6
-253.094
-46209.5
-255.971
-45950.7
-258.8
-45689
-261.579
-45424.6
-264.311
-45157.5
-266.995
-44887.8
-269.631
-44615.5
-272.221
-44340.7
-274.764
-44063.3
-277.262
-43783.6
-279.714
-43501.3
-282.121
-43216.8
-284.484
-42929.9
-286.802
-42640.7
-289.078
-42349.3
-291.31
-42055.8
-293.501
-41760
-295.649
-41462.2
-297.756
-41162.3
-299.822
-40860.3
-301.848
-40556.4
-303.833
-40250.6
-305.78
-39942.8
-307.688
-39633.1
-309.557
-39321.7
-311.389
-39008.4
-313.183
-38693.4
-314.94
-38376.6
-316.661
-38058.2
-318.347
-37738.1
-319.997
-37416.4
-321.612
-37093.2
-323.194
-36768.4
-324.741
-36442
-326.255
-36114.2
-327.737
-35784.9
-329.186
-35454.3
-330.603
-35122.2
-331.99
-34788.8
-333.345
-34454
-334.67
-34118
-335.966
-33780.7
-337.232
-33442.2
-338.469
-33102.4
-339.678
-32761.5
-340.859
-32419.4
-342.013
-32076.2
-343.139
-31731.9
-344.239
-31386.5
-345.313
-31040.1
-346.362
-30692.7
-347.385
-30344.2
-348.384
-29994.8
-349.359
-29644.4
-350.309
-29293.2
-351.237
-28941
-352.141
-28587.9
-353.023
-28234
-353.883
-27879.2
-354.721
-27523.6
-355.537
-27167.2
-356.333
-26810.1
-357.108
-26452.2
-357.864
-26093.6
-358.599
-25734.2
-359.316
-25374.2
-360.013
-25013.4
-360.692
-24652
-361.352
-24290
-361.995
-23927.4
-362.62
-23564.1
-363.228
-23200.3
-363.82
-22835.9
-364.395
-22470.9
-364.953
-22105.4
-365.497
-21739.3
-366.024
-21372.8
-366.537
-21005.7
-367.035
-20638.2
-367.518
-20270.2
-367.987
-19901.8
-368.442
-19532.9
-368.884
-19163.6
-369.313
-18793.8
-369.728
-18423.7
-370.131
-18053.2
-370.521
-17682.3
-370.899
-17311
-371.265
-16939.4
-371.619
-16567.5
-371.963
-16195.2
-372.294
-15822.6
-372.615
-15449.6
-372.926
-15076.4
-373.225
-14702.9
-373.515
-14329.2
-373.795
-13955.1
-374.064
-13580.8
-374.324
-13206.3
-374.575
-12831.5
-374.817
-12456.4
-375.049
-12081.2
-375.273
-11705.7
-375.488
-11330.1
-375.694
-10954.2
-375.893
-10578.2
-376.083
-10201.9
-376.265
-9825.52
-376.439
-9448.94
-376.606
-9072.21
-376.766
-8695.33
-376.918
-8318.31
-377.063
-7941.15
-377.2
-7563.86
-377.332
-7186.44
-377.456
-6808.91
-377.574
-6431.26
-377.685
-6053.52
-377.791
-5675.67
-377.89
-5297.73
-377.983
-4919.71
-378.071
-4541.6
-378.153
-4163.42
-378.229
-3785.16
-378.3
-3406.85
-378.365
-3028.47
-378.425
-2650.04
-378.48
-2271.56
-378.529
-1893.03
-378.572
-1514.47
-378.609
-1135.88
-378.639
-757.269
-378.663
-378.638
-378.68
-378.687
-1118.79
2254.59
-2206.12
2190.61
-3234.25
2067.49
-4186.92
1911.11
-5060.86
1748.46
-5863.24
1601.42
-6607.63
1482.99
-7309.72
1397.32
-7984.11
1341.86
-8642.54
1310.5
-9293.34
1296.14
-9941.81
1292.41
-10590.9
1294.43
-11241.8
1298.89
-11894.8
1303.78
-12549.7
1308.03
-13206
1311.17
-13863.1
1313.05
-14520.5
1313.72
-15177.5
1313.28
-15833.8
1311.85
-16488.8
1309.55
-17142.3
1306.48
-17793.9
1302.75
-18443.3
1298.41
-19090.3
1293.53
-19734.5
1288.16
-20375.8
1282.34
-21014
1276.1
-21648.9
1269.48
-22280.2
1262.5
-22907.9
1255.18
-23531.8
1247.54
-24151.7
1239.59
-24767.5
1231.36
-25379
1222.85
-25986.2
1214.07
-26588.8
1205.04
-27186.7
1195.77
-27779.9
1186.26
-28368.3
1176.52
-28951.6
1166.56
-29529.9
1156.39
-30103
1146.01
-30670.8
1135.43
-31233.2
1124.66
-31790.1
1113.7
-32341.5
1102.56
-32887.2
1091.24
-33427.1
1079.76
-33961.2
1068.11
-34489.4
1056.29
-35011.7
1044.33
-35527.8
1032.21
-36037.9
1019.94
-36541.7
1007.54
-37039.3
995.003
-37530.5
982.334
-38015.3
969.539
-38493.7
956.623
-38965.6
943.59
-39430.8
930.445
-39889.5
917.193
-40341.5
903.837
-40786.7
890.383
-41225.2
876.836
-41656.8
863.198
-42081.6
849.476
-42499.5
835.673
-42910.5
821.794
-43314.5
807.842
-43711.4
793.823
-44101.3
779.741
-44484.2
765.599
-44859.9
751.402
-45228.6
737.154
-45590
722.86
-45944.4
708.523
-46291.5
694.148
-46631.4
679.738
-46964.1
665.298
-47289.5
650.831
-47607.8
636.341
-47918.7
621.833
-48222.4
607.311
-48518.8
592.777
-48808
578.236
-49089.9
563.691
-49364.5
549.146
-49631.9
534.605
-49891.9
520.072
-50144.7
505.549
-50390.3
491.04
-50628.6
476.55
-50859.7
462.08
-51083.5
447.635
-51300.2
433.217
-51509.6
418.83
-51711.9
404.477
-51907
390.162
-52095
375.886
-52275.8
361.654
-52449.6
347.468
-52616.3
333.33
-52776
319.245
-52928.6
305.214
-53074.2
291.24
-53212.9
277.326
-53344.7
263.474
-53469.6
249.687
-53587.6
235.968
-53698.8
222.318
-53803.1
208.74
-53900.8
195.237
-53991.7
181.81
-54076
168.461
-54153.6
155.194
-54224.6
142.009
-54289.1
128.909
-54347.1
115.895
-54398.6
102.969
-54443.6
90.134
-54482.4
77.3905
-54514.7
64.7404
-54540.8
52.1853
-54560.7
39.7268
-54574.4
27.3662
-54582
15.105
-54583.5
2.94445
-54578.9
-9.1141
-54568.4
-21.0695
-54552
-32.9205
-54529.6
-44.6661
-54501.5
-56.3052
-54467.6
-67.8369
-54428
-79.2602
-54382.7
-90.5743
-54331.8
-101.778
-54275.4
-112.872
-54213.5
-123.853
-54146.1
-134.723
-54073.4
-145.48
-53995.3
-156.123
-53912
-166.653
-53823.5
-177.068
-53729.8
-187.369
-53631
-197.555
-53527.2
-207.625
-53418.4
-217.58
-53304.7
-227.419
-53186.2
-237.142
-53062.8
-246.75
-52934.7
-256.241
-52801.9
-265.616
-52664.5
-274.874
-52522.5
-284.017
-52375.9
-293.044
-52225
-301.955
-52069.6
-310.75
-51909.9
-319.43
-51745.9
-327.994
-51577.7
-336.444
-51405.3
-344.779
-51228.8
-352.999
-51048.3
-361.106
-50863.7
-369.099
-50675.2
-376.979
-50482.9
-384.747
-50286.7
-392.402
-50086.7
-399.946
-49883
-407.379
-49675.7
-414.701
-49464.7
-421.913
-49250.2
-429.017
-49032.2
-436.012
-48810.8
-442.899
-48586
-449.678
-48357.8
-456.352
-48126.4
-462.919
-47891.7
-469.382
-47653.8
-475.74
-47412.9
-481.996
-47168.8
-488.148
-46921.7
-494.199
-46671.7
-500.149
-46418.7
-505.999
-46162.8
-511.75
-45904.2
-517.403
-45642.7
-522.958
-45378.5
-528.417
-45111.6
-533.781
-44842.2
-539.05
-44570.1
-544.225
-44295.4
-549.308
-44018.3
-554.299
-43738.8
-559.199
-43456.8
-564.01
-43172.5
-568.732
-42885.8
-573.366
-42596.9
-577.913
-42305.7
-582.375
-42012.4
-586.752
-41716.9
-591.045
-41419.3
-595.255
-41119.7
-599.384
-40818
-603.432
-40514.4
-607.4
-40208.8
-611.29
-39901.3
-615.102
-39591.9
-618.838
-39280.7
-622.498
-38967.7
-626.083
-38653
-629.595
-38336.6
-633.034
-38018.4
-636.402
-37698.6
-639.7
-37377.2
-642.928
-37054.3
-646.087
-36729.7
-649.18
-36403.7
-652.205
-36076.2
-655.166
-35747.3
-658.061
-35416.9
-660.894
-35085.1
-663.664
-34752
-666.372
-34417.6
-669.02
-34081.9
-671.608
-33744.9
-674.138
-33406.7
-676.61
-33067.3
-679.026
-32726.7
-681.386
-32385
-683.691
-32042.1
-685.942
-31698.1
-688.14
-31353.1
-690.286
-31007
-692.381
-30659.9
-694.426
-30311.8
-696.422
-29962.8
-698.369
-29612.8
-700.268
-29261.8
-702.121
-28910
-703.928
-28557.3
-705.689
-28203.7
-707.407
-27849.3
-709.081
-27494.1
-710.713
-27138.1
-712.303
-26781.3
-713.852
-26423.7
-715.361
-26065.5
-716.831
-25706.5
-718.262
-25346.8
-719.655
-24986.5
-721.011
-24625.4
-722.33
-24263.8
-723.614
-23901.5
-724.864
-23538.7
-726.079
-23175.2
-727.26
-22811.2
-728.409
-22446.6
-729.525
-22081.4
-730.61
-21715.8
-731.664
-21349.6
-732.688
-20982.9
-733.683
-20615.8
-734.648
-20248.2
-735.585
-19880.1
-736.495
-19511.6
-737.377
-19142.7
-738.233
-18773.4
-739.063
-18403.6
-739.867
-18033.5
-740.647
-17663
-741.402
-17292.2
-742.133
-16920.9
-742.841
-16549.4
-743.527
-16177.5
-744.19
-15805.3
-744.831
-15432.8
-745.45
-15060
-746.049
-14686.9
-746.628
-14313.5
-747.186
-13939.9
-747.725
-13566
-748.244
-13191.8
-748.745
-12817.4
-749.227
-12442.8
-749.692
-12068
-750.138
-11692.9
-750.568
-11317.7
-750.981
-10942.2
-751.377
-10566.6
-751.756
-10190.7
-752.12
-9814.74
-752.469
-9438.58
-752.802
-9062.27
-753.12
-8685.8
-753.424
-8309.18
-753.713
-7932.43
-753.989
-7555.55
-754.25
-7178.55
-754.499
-6801.43
-754.734
-6424.2
-754.957
-6046.87
-755.167
-5669.44
-755.365
-5291.91
-755.552
-4914.3
-755.727
-4536.61
-755.89
-4158.84
-756.043
-3781.01
-756.184
-3403.1
-756.315
-3025.14
-756.435
-2647.13
-756.543
-2269.06
-756.641
-1890.96
-756.727
-1512.81
-756.801
-1134.64
-756.862
-756.44
-756.91
-378.225
-756.943
-756.962
-1094.45
3348.65
-2160.16
3255.92
-3172.33
3079.28
-4116.06
2854.46
-4987.74
2619.78
-5793.16
2406.49
-6544.02
2233.51
-7254.25
2107.21
-7937.07
2024.34
-8603.31
1976.41
-9260.87
1953.36
-9914.89
1946.09
-10568.3
1947.53
-11222.6
1952.84
-11878.2
1959.05
-12535
1964.53
-13192.8
1968.55
-13850.9
1970.85
-14508.9
1971.45
-15166.5
1970.47
-15823
1968.08
-16478.3
1964.45
-17131.8
1959.71
-17783.4
1953.99
-18432.7
1947.38
-19079.5
1939.99
-19723.5
1931.87
-20364.6
1923.09
-21002.5
1913.69
-21637.1
1903.73
-22268.2
1893.23
-22895.5
1882.22
-23519.1
1870.74
-24138.6
1858.8
-24754
1846.44
-25365.1
1833.66
-25971.9
1820.48
-26574.1
1806.93
-27171.6
1793.01
-27764.4
1778.74
-28352.4
1764.12
-28935.3
1749.18
-29513.1
1733.92
-30085.8
1718.35
-30653.1
1702.48
-31215.1
1686.32
-31771.6
1669.88
-32322.5
1653.17
-32867.8
1636.19
-33407.3
1618.96
-33941
1601.48
-34468.7
1583.76
-34990.5
1565.81
-35506.2
1547.64
-36015.8
1529.25
-36519.2
1510.64
-37016.4
1491.84
-37507.2
1472.83
-37991.6
1453.64
-38469.5
1434.27
-38940.9
1414.73
-39405.8
1395.01
-39864
1375.14
-40315.5
1355.11
-40760.4
1334.93
-41198.4
1314.61
-41629.6
1294.16
-42054
1273.58
-42471.5
1252.88
-42882
1232.06
-43285.6
1211.14
-43682.1
1190.12
-44071.6
1169
-44454.1
1147.79
-44829.4
1126.5
-45197.7
1105.13
-45558.7
1083.69
-45912.7
1062.19
-46259.4
1040.64
-46598.9
1019.03
-46931.2
997.373
-47256.3
975.679
-47574.2
953.951
-47884.7
932.195
-48188.1
910.416
-48484.1
888.622
-48772.9
866.816
-49054.5
845.006
-49328.7
823.195
-49595.7
801.391
-49855.5
779.597
-50107.9
757.82
-50353.2
736.064
-50591.1
714.334
-50821.9
692.637
-51045.4
670.976
-51261.8
649.357
-51470.9
627.784
-51672.9
606.262
-51867.7
584.796
-52055.3
563.391
-52235.9
542.05
-52409.4
520.778
-52575.8
499.58
-52735.2
478.46
-52887.5
457.421
-53032.9
436.468
-53171.3
415.605
-53302.9
394.836
-53427.5
374.164
-53545.2
353.592
-53656.2
333.126
-53760.3
312.768
-53857.7
292.521
-53948.5
272.389
-54032.5
252.375
-54109.9
232.482
-54180.7
212.713
-54245
193.071
-54302.7
173.559
-54354.1
154.179
-54399
134.935
-54437.5
115.828
-54469.7
96.8618
-54495.6
78.0379
-54515.4
59.3588
-54528.9
40.8266
-54536.3
22.4435
-54537.7
4.2115
-54533
-13.8676
-54522.3
-31.7919
-54505.7
-49.5596
-54483.3
-67.1693
-54455
-84.6192
-54421
-101.908
-54381.3
-119.034
-54335.9
-135.997
-54284.9
-152.794
-54228.4
-169.425
-54166.4
-185.889
-54099
-202.184
-54026.2
-218.311
-53948.1
-234.267
-53864.7
-250.053
-53776.1
-265.668
-53682.4
-281.11
-53583.6
-296.38
-53479.7
-311.477
-53370.9
-326.401
-53257.2
-341.151
-53138.6
-355.728
-53015.2
-370.13
-52887.1
-384.358
-52754.3
-398.412
-52616.8
-412.292
-52474.9
-425.998
-52328.3
-439.53
-52177.4
-452.888
-52022
-466.073
-51862.4
-479.084
-51698.4
-491.923
-51530.2
-504.589
-51357.9
-517.083
-51181.5
-529.406
-51001
-541.558
-50816.5
-553.54
-50628.1
-565.353
-50435.8
-576.996
-50239.7
-588.472
-50039.8
-599.78
-49836.2
-610.921
-49628.9
-621.897
-49418.1
-632.709
-49203.7
-643.356
-48985.8
-653.841
-48764.5
-664.164
-48539.8
-674.327
-48311.7
-684.329
-48080.4
-694.174
-47845.9
-703.861
-47608.1
-713.392
-47367.3
-722.768
-47123.4
-731.99
-46876.5
-741.059
-46626.6
-749.978
-46373.7
-758.746
-46118
-767.366
-45859.5
-775.839
-45598.3
-784.165
-45334.2
-792.347
-45067.6
-800.386
-44798.2
-808.284
-44526.4
-816.041
-44251.9
-823.659
-43975
-831.139
-43695.6
-838.484
-43413.9
-845.694
-43129.7
-852.771
-42843.3
-859.716
-42554.6
-866.531
-42263.7
-873.218
-41970.6
-879.778
-41675.3
-886.212
-41378
-892.522
-41078.6
-898.71
-40777.1
-904.777
-40473.7
-910.724
-40168.4
-916.554
-39861.1
-922.267
-39552
-927.865
-39241.1
-933.351
-38928.4
-938.724
-38613.9
-943.987
-38297.7
-949.141
-37979.8
-954.189
-37660.3
-959.13
-37339.2
-963.968
-37016.5
-968.703
-36692.3
-973.336
-36366.5
-977.871
-36039.3
-982.307
-35710.6
-986.646
-35380.6
-990.891
-35049.1
-995.042
-34716.3
-999.1
-34382.2
-1003.07
-34046.8
-1006.95
-33710.1
-1010.74
-33372.2
-1014.44
-33033.1
-1018.06
-32692.8
-1021.6
-32351.4
-1025.05
-32008.9
-1028.43
-31665.2
-1031.72
-31320.5
-1034.94
-30974.8
-1038.07
-30628
-1041.14
-30280.2
-1044.13
-29931.5
-1047.05
-29581.8
-1049.89
-29231.2
-1052.67
-28879.7
-1055.38
-28527.3
-1058.01
-28174.1
-1060.59
-27820
-1063.1
-27465.2
-1065.54
-27109.5
-1067.92
-26753.1
-1070.25
-26395.9
-1072.51
-26038
-1074.71
-25679.3
-1076.85
-25320
-1078.94
-24960
-1080.97
-24599.4
-1082.95
-24238.1
-1084.87
-23876.2
-1086.74
-23513.7
-1088.56
-23150.6
-1090.33
-22786.9
-1092.05
-22422.7
-1093.73
-22057.9
-1095.35
-21692.7
-1096.93
-21326.9
-1098.47
-20960.6
-1099.95
-20593.8
-1101.4
-20226.6
-1102.81
-19858.9
-1104.17
-19490.8
-1105.49
-19122.3
-1106.77
-18753.3
-1108.01
-18383.9
-1109.22
-18014.2
-1110.39
-17644.1
-1111.52
-17273.6
-1112.61
-16902.8
-1113.67
-16531.6
-1114.7
-16160.1
-1115.69
-15788.3
-1116.65
-15416.2
-1117.58
-15043.8
-1118.48
-14671.1
-1119.35
-14298.1
-1120.18
-13924.9
-1120.99
-13551.4
-1121.77
-13177.6
-1122.52
-12803.6
-1123.24
-12429.4
-1123.94
-12055
-1124.6
-11680.3
-1125.25
-11305.4
-1125.87
-10930.4
-1126.46
-10555.2
-1127.03
-10179.7
-1127.57
-9804.14
-1128.09
-9428.38
-1128.59
-9052.47
-1129.07
-8676.4
-1129.53
-8300.19
-1129.96
-7923.85
-1130.37
-7547.38
-1130.76
-7170.78
-1131.14
-6794.07
-1131.49
-6417.25
-1131.82
-6040.32
-1132.14
-5663.3
-1132.43
-5286.18
-1132.71
-4908.98
-1132.97
-4531.7
-1133.22
-4154.34
-1133.45
-3776.91
-1133.66
-3399.42
-1133.86
-3021.86
-1134.03
-2644.26
-1134.2
-2266.6
-1134.34
-1888.91
-1134.47
-1511.17
-1134.58
-1133.41
-1134.68
-755.619
-1134.75
-377.813
-1134.8
-1134.82
-1062.43
4410.68
-2099.83
4292.93
-3091.06
4070.12
-4022.97
3786
-4891.64
3488.09
-5701.09
3215.58
-6460.63
2992.71
-7181.86
2828.09
-7876.15
2718.29
-8553.13
2653.05
-9220.04
2619.94
-9881.82
2607.53
-10541.5
2606.85
-11200.6
2611.67
-11860
2618.08
-12519.7
2623.92
-13179.7
2628.13
-13839.4
2630.31
-14498.8
2630.43
-15157.2
2628.61
-15814.5
2625.02
-16470.2
2619.86
-17124.2
2613.29
-17776
2605.47
-18425.4
2596.5
-19072.3
2586.51
-19716.3
2575.58
-20357.3
2563.79
-20995.2
2551.19
-21629.6
2537.83
-22260.5
2523.78
-22887.6
2509.06
-23510.9
2493.72
-24130.2
2477.77
-24745.4
2461.25
-25356.2
2444.19
-25962.7
2426.6
-26564.6
2408.51
-27161.8
2389.94
-27754.3
2370.89
-28341.9
2351.4
-28924.5
2331.46
-29502
2311.1
-30074.3
2290.33
-30641.3
2269.17
-31202.9
2247.62
-31759
2225.69
-32309.5
2203.4
-32854.4
2180.77
-33393.6
2157.79
-33926.9
2134.48
-34454.2
2110.85
-34975.6
2086.92
-35491
2062.68
-36000.2
2038.16
-36503.2
2013.35
-36999.9
1988.28
-37490.3
1962.94
-37974.3
1937.36
-38451.9
1911.53
-38922.9
1885.47
-39387.4
1859.18
-39845.2
1832.68
-40296.3
1805.98
-40740.8
1779.08
-41178.4
1751.99
-41609.2
1724.72
-42033.2
1697.28
-42450.3
1669.69
-42860.4
1641.94
-43263.6
1614.04
-43659.8
1586.01
-44048.9
1557.86
-44430.9
1529.59
-44805.9
1501.2
-45173.7
1472.72
-45534.4
1444.14
-45888
1415.48
-46234.3
1386.74
-46573.4
1357.93
-46905.4
1329.07
-47230.1
1300.15
-47547.5
1271.18
-47857.8
1242.18
-48160.7
1213.15
-48456.4
1184.1
-48744.8
1155.03
-49026
1125.95
-49299.9
1096.88
-49566.5
1067.81
-49825.9
1038.76
-50078
1009.73
-50322.9
980.734
-50560.5
951.769
-50790.9
922.847
-51014.1
893.974
-51230.1
865.156
-51438.9
836.401
-51640.5
807.713
-51835
779.101
-52022.4
750.568
-52202.6
722.123
-52375.8
693.769
-52541.9
665.514
-52700.9
637.362
-52853
609.32
-52998.1
581.392
-53136.2
553.584
-53267.4
525.901
-53391.7
498.348
-53509.2
470.93
-53619.9
443.651
-53723.7
416.517
-53820.9
389.531
-53911.3
362.699
-53995.1
336.023
-54072.2
309.51
-54142.8
283.162
-54206.8
256.983
-54264.3
230.977
-54315.4
205.148
-54360.1
179.5
-54398.4
154.035
-54430.3
128.757
-54456.1
103.67
-54475.6
78.775
-54488.9
54.0765
-54496.1
29.5767
-54497.2
5.27844
-54492.4
-18.8159
-54481.5
-42.7037
-54464.7
-66.3829
-54442.1
-89.8512
-54413.7
-113.106
-54379.5
-136.147
-54339.6
-158.971
-54294.1
-181.576
-54243
-203.961
-54186.3
-226.124
-54124.2
-248.064
-54056.6
-269.78
-53983.7
-291.271
-53905.4
-312.535
-53821.9
-333.571
-53733.2
-354.379
-53639.4
-374.958
-53540.5
-395.306
-53436.5
-415.424
-53327.6
-435.311
-53213.8
-454.967
-53095.2
-474.391
-52971.7
-493.583
-52843.5
-512.542
-52710.6
-531.27
-52573.2
-549.765
-52431.1
-568.028
-52284.6
-586.06
-52133.6
-603.859
-51978.2
-621.428
-51818.5
-638.765
-51654.5
-655.873
-51486.3
-672.75
-51314
-689.398
-51137.5
-705.818
-50957
-722.01
-50772.6
-737.975
-50584.2
-753.714
-50391.9
-769.228
-50195.8
-784.518
-49995.9
-799.585
-49792.4
-814.43
-49585.2
-829.054
-49374.4
-843.459
-49160
-857.645
-48942.2
-871.615
-48720.9
-885.369
-48496.3
-898.909
-48268.3
-912.236
-48037.1
-925.352
-47802.6
-938.258
-47565
-950.956
-47324.2
-963.447
-47080.4
-975.734
-46833.6
-987.817
-46583.8
-999.699
-46331.1
-1011.38
-46075.5
-1022.86
-45817.1
-1034.15
-45556
-1045.25
-45292.1
-1056.15
-45025.5
-1066.86
-44756.4
-1077.38
-44484.6
-1087.71
-44210.3
-1097.86
-43933.6
-1107.82
-43654.4
-1117.61
-43372.8
-1127.21
-43088.8
-1136.64
-42802.6
-1145.89
-42514
-1154.97
-42223.3
-1163.88
-41930.4
-1172.62
-41635.3
-1181.19
-41338.1
-1189.59
-41038.9
-1197.84
-40737.7
-1205.92
-40434.5
-1213.84
-40129.4
-1221.61
-39822.3
-1229.22
-39513.4
-1236.67
-39202.7
-1243.98
-38890.2
-1251.14
-38576
-1258.15
-38260
-1265.01
-37942.4
-1271.74
-37623.1
-1278.32
-37302.3
-1284.76
-36979.8
-1291.07
-36655.8
-1297.24
-36330.4
-1303.28
-36003.4
-1309.19
-35675
-1314.97
-35345.2
-1320.62
-35014
-1326.15
-34681.5
-1331.56
-34347.6
-1336.84
-34012.5
-1342.01
-33676.1
-1347.06
-33338.5
-1351.99
-32999.7
-1356.81
-32659.7
-1361.52
-32318.6
-1366.12
-31976.3
-1370.61
-31633
-1375
-31288.6
-1379.28
-30943.1
-1383.46
-30596.7
-1387.54
-30249.2
-1391.52
-29900.8
-1395.41
-29551.4
-1399.2
-29201.1
-1402.9
-28850
-1406.5
-28497.9
-1410.02
-28145
-1413.44
-27791.3
-1416.78
-27436.7
-1420.04
-27081.4
-1423.21
-26725.3
-1426.3
-26368.5
-1429.31
-26010.9
-1432.25
-25652.6
-1435.1
-25293.6
-1437.88
-24934
-1440.58
-24573.7
-1443.22
-24212.7
-1445.78
-23851.2
-1448.27
-23489
-1450.69
-23126.3
-1453.05
-22763
-1455.34
-22399.1
-1457.57
-22034.7
-1459.73
-21669.8
-1461.84
-21304.4
-1463.88
-20938.5
-1465.86
-20572.1
-1467.79
-20205.2
-1469.66
-19837.9
-1471.47
-19470.1
-1473.23
-19102
-1474.94
-18733.4
-1476.59
-18364.4
-1478.2
-17995.1
-1479.75
-17625.3
-1481.26
-17255.2
-1482.71
-16884.8
-1484.13
-16514
-1485.49
-16142.9
-1486.81
-15771.5
-1488.09
-15399.7
-1489.33
-15027.7
-1490.52
-14655.4
-1491.68
-14282.8
-1492.79
-13909.9
-1493.86
-13536.8
-1494.9
-13163.5
-1495.9
-12789.9
-1496.86
-12416.1
-1497.79
-12042
-1498.68
-11667.8
-1499.53
-11293.3
-1500.35
-10918.6
-1501.14
-10543.8
-1501.9
-10168.8
-1502.63
-9793.58
-1503.32
-9418.23
-1503.99
-9042.71
-1504.62
-8667.05
-1505.22
-8291.24
-1505.8
-7915.3
-1506.35
-7539.23
-1506.87
-7163.04
-1507.37
-6786.74
-1507.84
-6410.32
-1508.28
-6033.8
-1508.7
-5657.18
-1509.09
-5280.47
-1509.47
-4903.67
-1509.81
-4526.8
-1510.14
-4149.85
-1510.44
-3772.83
-1510.73
-3395.74
-1510.99
-3018.6
-1511.23
-2641.4
-1511.44
-2264.15
-1511.64
-1886.87
-1511.81
-1509.54
-1511.96
-1132.18
-1512.08
-754.805
-1512.18
-377.408
-1512.24
-1512.28
-1033.78
5444.07
-2045.63
5304.39
-3017.57
5041.68
-3938.06
4706.12
-4803.01
4352.68
-5615.1
4027.31
-6381.65
3758.92
-7112.28
3558.38
-7816.72
3422.39
-8503.47
3339.46
-9179.12
3295.26
-9848.34
3276.42
-10514.1
3272.32
-11178.3
3275.45
-11841.6
3281.06
-12504.4
3286.41
-13166.7
3290.15
-13828.4
3291.69
-14489.3
3290.92
-15148.9
3287.92
-15807.1
3282.88
-16463.6
3275.99
-17118
3267.42
-17770.2
3257.35
-18420
3245.92
-19067
3233.24
-19711.2
3219.43
-20352.3
3204.55
-20990.1
3188.69
-21624.5
3171.91
-22255.4
3154.27
-22882.4
3135.8
-23505.6
3116.56
-24124.7
3096.58
-24739.7
3075.89
-25350.3
3054.53
-25956.6
3032.51
-26558.2
3009.87
-27155.3
2986.63
-27747.5
2962.8
-28334.8
2938.41
-28917.1
2913.47
-29494.3
2888.01
-30066.4
2862.03
-30633.1
2835.56
-31194.4
2808.61
-31750.2
2781.2
-32300.4
2753.33
-32845
2725.02
-33383.8
2696.29
-33916.8
2667.15
-34443.8
2637.61
-34964.9
2607.69
-35479.9
2577.39
-35988.8
2546.73
-36491.4
2515.72
-36987.8
2484.37
-37477.9
2452.7
-37961.5
2420.72
-38438.7
2388.43
-38909.4
2355.85
-39373.5
2323
-39830.9
2289.87
-40281.7
2256.49
-40725.8
2222.86
-41163.1
2189
-41593.6
2154.92
-42017.2
2120.63
-42433.9
2086.13
-42843.7
2051.45
-43246.5
2016.58
-43642.3
1981.55
-44031
1946.36
-44412.7
1911.02
-44787.3
1875.54
-45154.8
1839.94
-45515.1
1804.22
-45868.3
1768.4
-46214.2
1732.48
-46553
1696.48
-46884.6
1660.4
-47208.9
1624.25
-47526
1588.05
-47835.9
1551.8
-48138.5
1515.52
-48433.8
1479.21
-48721.9
1442.88
-49002.7
1406.54
-49276.2
1370.21
-49542.5
1333.88
-49801.5
1297.58
-50053.3
1261.3
-50297.8
1225.05
-50535.1
1188.86
-50765.2
1152.71
-50988
1116.63
-51203.6
1080.61
-51412.1
1044.68
-51613.4
1008.83
-51807.5
973.07
-51994.6
937.413
-52174.5
901.865
-52347.3
866.433
-52513.1
831.123
-52671.8
795.943
-52823.6
760.9
-52968.3
726.001
-53106.1
691.251
-53237
656.657
-53361.1
622.227
-53478.2
587.965
-53588.6
553.877
-53692.2
519.97
-53789
486.249
-53879.2
452.72
-53962.6
419.387
-54039.5
386.256
-54109.8
353.333
-54173.5
320.621
-54230.8
288.126
-54281.6
255.852
-54326
223.804
-54364
191.985
-54395.8
160.4
-54421.2
129.053
-54440.5
97.9478
-54453.6
67.0874
-54460.6
36.4756
-54461.5
6.11568
-54456.4
-23.9891
-54445.3
-53.8359
-54428.3
-83.4216
-54405.5
-112.744
-54376.9
-141.799
-54342.5
-170.587
-54302.4
-199.103
-54256.7
-227.345
-54205.3
-255.313
-54148.5
-283.004
-54086.2
-310.415
-54018.5
-337.547
-53945.4
-364.396
-53867
-390.962
-53783.3
-417.244
-53694.5
-443.24
-53600.5
-468.949
-53501.4
-494.371
-53397.4
-519.504
-53288.3
-544.349
-53174.4
-568.905
-53055.6
-593.171
-52932
-617.146
-52803.8
-640.832
-52670.8
-664.227
-52533.2
-687.332
-52391.1
-710.147
-52244.4
-732.673
-52093.4
-754.908
-51937.9
-776.855
-51778.2
-798.513
-51614.1
-819.883
-51445.9
-840.966
-51273.5
-861.763
-51097
-882.273
-50916.5
-902.5
-50731.9
-922.442
-50543.5
-942.103
-50351.2
-961.481
-50155.1
-980.58
-49955.2
-999.401
-49751.7
-1017.94
-49544.5
-1036.21
-49333.7
-1054.2
-49119.3
-1071.92
-48901.5
-1089.37
-48680.3
-1106.55
-48455.7
-1123.46
-48227.7
-1140.11
-47996.5
-1156.49
-47762.1
-1172.61
-47524.5
-1188.47
-47283.8
-1204.07
-47040.1
-1219.42
-46793.3
-1234.51
-46543.6
-1249.35
-46291
-1263.94
-46035.5
-1278.28
-45777.2
-1292.38
-45516.1
-1306.23
-45252.3
-1319.85
-44985.9
-1333.22
-44716.8
-1346.36
-44445.2
-1359.27
-44171
-1371.94
-43894.4
-1384.39
-43615.3
-1396.61
-43333.8
-1408.6
-43050
-1420.38
-42763.9
-1431.93
-42475.5
-1443.27
-42184.9
-1454.39
-41892.1
-1465.3
-41597.2
-1476.01
-41300.2
-1486.5
-41001.2
-1496.8
-40700.1
-1506.89
-40397.1
-1516.78
-40092.2
-1526.48
-39785.3
-1535.98
-39476.6
-1545.29
-39166.1
-1554.42
-38853.8
-1563.35
-38539.7
-1572.11
-38224
-1580.68
-37906.6
-1589.07
-37587.5
-1597.29
-37266.9
-1605.34
-36944.6
-1613.21
-36620.9
-1620.92
-36295.6
-1628.46
-35968.9
-1635.84
-35640.7
-1643.05
-35311.2
-1650.11
-34980.2
-1657.01
-34648
-1663.76
-34314.4
-1670.36
-33979.5
-1676.81
-33643.4
-1683.11
-33306
-1689.27
-32967.5
-1695.29
-32627.7
-1701.17
-32286.9
-1706.92
-31944.9
-1712.52
-31601.8
-1718
-31257.7
-1723.35
-30912.5
-1728.57
-30566.4
-1733.66
-30219.2
-1738.63
-29871.1
-1743.48
-29522
-1748.21
-29172
-1752.83
-28821.2
-1757.33
-28469.4
-1761.71
-28116.8
-1765.99
-27763.4
-1770.16
-27409.2
-1774.23
-27054.1
-1778.19
-26698.4
-1782.04
-26341.8
-1785.8
-25984.6
-1789.46
-25626.6
-1793.02
-25268
-1796.49
-24908.7
-1799.87
-24548.7
-1803.16
-24188.1
-1806.35
-23826.9
-1809.46
-23465.1
-1812.49
-23102.7
-1815.43
-22739.7
-1818.29
-22376.2
-1821.07
-22012.1
-1823.77
-21647.5
-1826.39
-21282.5
-1828.94
-20916.9
-1831.42
-20550.9
-1833.82
-20184.3
-1836.15
-19817.4
-1838.42
-19450
-1840.61
-19082.2
-1842.74
-18714
-1844.81
-18345.4
-1846.81
-17976.4
-1848.75
-17607
-1850.63
-17237.3
-1852.45
-16867.2
-1854.21
-16496.8
-1855.91
-16126.1
-1857.56
-15755
-1859.16
-15383.6
-1860.7
-15012
-1862.19
-14640.1
-1863.63
-14267.8
-1865.02
-13895.4
-1866.36
-13522.6
-1867.65
-13149.7
-1868.9
-12776.4
-1870.1
-12403
-1871.25
-12029.3
-1872.36
-11655.5
-1873.43
-11281.4
-1874.46
-10907.1
-1875.44
-10532.7
-1876.39
-10158
-1877.29
-9783.25
-1878.16
-9408.28
-1878.99
-9033.16
-1879.78
-8657.89
-1880.53
-8282.48
-1881.25
-7906.93
-1881.94
-7531.26
-1882.59
-7155.46
-1883.2
-6779.55
-1883.79
-6403.53
-1884.34
-6027.41
-1884.87
-5651.18
-1885.36
-5274.87
-1885.82
-4898.48
-1886.26
-4522
-1886.66
-4145.45
-1887.04
-3768.82
-1887.39
-3392.14
-1887.72
-3015.39
-1888.02
-2638.6
-1888.29
-2261.75
-1888.53
-1884.86
-1888.75
-1507.94
-1888.93
-1130.98
-1889.08
-754.003
-1889.21
-377.006
-1889.29
-1889.34
-1005.55
6449.23
-1992.24
6290.69
-2944.96
5994.01
-3853.64
5614.43
-4714.18
5212.86
-5528.09
4840.86
-6300.92
4531.4
-7040.42
4297.54
-7754.74
4136.38
-8451.25
4035.63
-9135.84
3979.52
-9812.87
3953.11
-10485.2
3944.36
-11154.8
3944.66
-11822.5
3948.45
-12488.9
3952.48
-13154.1
3955.04
-13818.1
3955.38
-14480.8
3953.27
-15142
3948.74
-15801.4
3941.95
-16458.8
3933.09
-17114.1
3922.34
-17766.9
3909.88
-18417.2
3895.84
-19064.6
3880.38
-19709.1
3863.58
-20350.4
3845.55
-20988.4
3826.37
-21623
3806.11
-22253.9
3784.83
-22881
3762.58
-23504.1
3739.41
-24123.2
3715.36
-24738.1
3690.48
-25348.7
3664.79
-25954.8
3638.32
-26556.4
3611.11
-27153.3
3583.18
-27745.3
3554.55
-28332.5
3525.25
-28914.7
3495.3
-29491.7
3464.73
-30063.5
3433.53
-30630
3401.75
-31191.1
3369.39
-31746.7
3336.48
-32296.7
3303.02
-32841
3269.04
-33379.6
3234.56
-33912.3
3199.57
-34439.1
3164.12
-34959.9
3128.2
-35474.7
3091.83
-35983.3
3055.03
-36485.6
3017.81
-36981.7
2980.19
-37471.5
2942.18
-37954.9
2903.79
-38431.8
2865.04
-38902.1
2825.94
-39365.9
2786.51
-39823.1
2746.76
-40273.6
2706.69
-40717.3
2666.34
-41154.3
2625.71
-41584.5
2584.8
-42007.8
2543.65
-42424.1
2502.25
-42833.6
2460.63
-43236.1
2418.79
-43631.5
2376.75
-44020
2334.52
-44401.3
2292.11
-44775.6
2249.54
-45142.7
2206.82
-45502.7
2163.96
-45855.5
2120.98
-46201.1
2077.87
-46539.6
2034.67
-46870.8
1991.38
-47194.8
1948.01
-47511.5
1904.57
-47821
1861.07
-48123.3
1817.54
-48418.2
1773.97