/*--------------------------------*- C++ -*----------------------------------*\
| =========                 |                                                 |
| \\      /  F ield         | OpenFOAM: The Open Source CFD Toolbox           |
|  \\    /   O peration     | Version:  2212                                  |
|   \\  /    A nd           | Website:  www.openfoam.com                      |
|    \\/     M anipulation  |                                                 |
\*---------------------------------------------------------------------------*/
FoamFile
{
    version     2.0;
    format      ascii;
    arch        "LSB;label=32;scalar=64";
    class       volScalarField;
    location    "980";
    object      p_rgh_0;
}
// * * * * * * * * * * * * * * * * * * * * * * * * * * * * * * * * * * * * * //

dimensions      [1 -1 -2 0 0 0 0];

internalField   nonuniform List<scalar> 
204800
(
52.0357
52.035
52.0334
52.0312
52.0279
52.0237
52.0182
52.0116
52.0037
51.9946
51.9843
51.9729
51.9603
51.9468
51.9321
51.9165
51.9
51.8824
51.864
51.8445
51.8242
51.8029
51.7808
51.7577
51.7337
51.7089
51.6832
51.6566
51.6291
51.6008
51.5717
51.5418
51.511
51.4794
51.4471
51.4139
51.38
51.3453
51.3099
51.2737
51.2369
51.1993
51.161
51.122
51.0824
51.0421
51.0011
50.9595
50.9173
50.8745
50.8312
50.7872
50.7427
50.6976
50.652
50.6059
50.5593
50.5123
50.4647
50.4167
50.3683
50.3194
50.2701
50.2205
50.1705
50.1201
50.0694
50.0183
49.967
49.9153
49.8634
49.8112
49.7588
49.7062
49.6533
49.6003
49.547
49.4937
49.4401
49.3865
49.3327
49.2788
49.2249
49.1709
49.1169
49.0628
49.0087
48.9546
48.9005
48.8465
48.7925
48.7385
48.6847
48.6309
48.5772
48.5237
48.4703
48.4171
48.364
48.3111
48.2584
48.2059
48.1536
48.1016
48.0498
47.9983
47.9471
47.8961
47.8454
47.7951
47.7451
47.6954
47.6461
47.5971
47.5485
47.5003
47.4524
47.405
47.358
47.3114
47.2652
47.2195
47.1742
47.1294
47.0851
47.0412
46.9978
46.9549
46.9126
46.8707
46.8293
46.7885
46.7481
46.7084
46.6691
46.6304
46.5923
46.5547
46.5177
46.4812
46.4453
46.41
46.3753
46.3411
46.3075
46.2745
46.2421
46.2103
46.1791
46.1485
46.1185
46.0891
46.0603
46.0321
46.0045
45.9775
45.9511
45.9253
45.9001
45.8755
45.8515
45.8281
45.8053
45.7831
45.7615
45.7405
45.7201
45.7002
45.681
45.6623
45.6442
45.6267
45.6098
45.5935
45.5777
45.5625
45.5478
45.5337
45.5201
45.5071
45.4946
45.4827
45.4713
45.4604
45.4501
45.4402
45.4309
45.422
45.4137
45.4059
45.3985
45.3916
45.3852
45.3793
45.3738
45.3688
45.3642
45.36
45.3563
45.3531
45.3502
45.3477
45.3457
45.344
45.3428
45.3419
45.3414
45.3412
45.3414
45.342
45.3429
45.3442
45.3458
45.3477
45.3499
45.3524
45.3552
45.3583
45.3617
45.3654
45.3693
45.3735
45.3779
45.3826
45.3875
45.3927
45.398
45.4036
45.4094
45.4153
45.4215
45.4278
45.4344
45.441
45.4479
45.4549
45.462
45.4693
45.4767
45.4842
45.4918
45.4996
45.5074
45.5153
45.5234
45.5315
45.5396
45.5479
45.5561
45.5645
45.5729
45.5813
45.5897
45.5982
45.6067
45.6152
45.6237
45.6322
45.6408
45.6492
45.6577
45.6662
45.6746
45.683
45.6913
45.6996
45.7078
45.716
45.7242
45.7322
45.7402
45.7481
45.7559
45.7636
45.7713
45.7788
45.7863
45.7936
45.8008
45.8079
45.8149
45.8218
45.8285
45.8351
45.8416
45.848
45.8542
45.8602
45.8661
45.8719
45.8775
45.8829
45.8882
45.8933
45.8983
45.9031
45.9077
45.9121
45.9164
45.9205
45.9244
45.9281
45.9316
45.935
45.9382
45.9411
45.9439
45.9465
45.9489
45.9511
45.9531
45.9549
45.9565
45.9579
45.9591
45.9602
45.961
45.9616
45.962
45.9622
51.9454
51.9441
51.9415
51.9378
51.9329
51.9271
51.9202
51.9124
51.9035
51.8937
51.8829
51.8711
51.8583
51.8446
51.8299
51.8143
51.7976
51.7801
51.7616
51.7422
51.7219
51.7007
51.6785
51.6555
51.6316
51.6068
51.5811
51.5545
51.5271
51.4989
51.4698
51.4399
51.4092
51.3777
51.3454
51.3123
51.2784
51.2438
51.2085
51.1724
51.1356
51.098
51.0598
51.0209
50.9813
50.9411
50.9002
50.8587
50.8166
50.7739
50.7306
50.6867
50.6423
50.5973
50.5518
50.5058
50.4593
50.4123
50.3648
50.3169
50.2685
50.2198
50.1706
50.121
50.0711
50.0208
49.9702
49.9192
49.868
49.8164
49.7646
49.7125
49.6602
49.6077
49.5549
49.502
49.4488
49.3955
49.3421
49.2886
49.2349
49.1811
49.1273
49.0734
49.0194
48.9655
48.9115
48.8575
48.8035
48.7496
48.6957
48.6418
48.5881
48.5344
48.4808
48.4274
48.3741
48.321
48.268
48.2152
48.1626
48.1102
48.058
48.0061
47.9544
47.903
47.8518
47.801
47.7504
47.7001
47.6502
47.6006
47.5514
47.5025
47.454
47.4059
47.3581
47.3108
47.2638
47.2173
47.1713
47.1256
47.0804
47.0357
46.9915
46.9477
46.9044
46.8616
46.8193
46.7775
46.7362
46.6954
46.6552
46.6155
46.5763
46.5377
46.4996
46.4621
46.4251
46.3887
46.3529
46.3177
46.283
46.2489
46.2154
46.1825
46.1501
46.1184
46.0872
46.0567
46.0267
45.9974
45.9686
45.9404
45.9129
45.8859
45.8596
45.8338
45.8087
45.7841
45.7602
45.7368
45.7141
45.6919
45.6704
45.6494
45.629
45.6092
45.59
45.5714
45.5534
45.5359
45.519
45.5027
45.4869
45.4718
45.4571
45.443
45.4295
45.4165
45.4041
45.3922
45.3808
45.3699
45.3596
45.3498
45.3404
45.3316
45.3233
45.3155
45.3081
45.3013
45.2949
45.2889
45.2835
45.2785
45.2739
45.2698
45.2661
45.2628
45.2599
45.2575
45.2554
45.2538
45.2525
45.2516
45.2511
45.251
45.2512
45.2518
45.2527
45.254
45.2555
45.2574
45.2596
45.2622
45.265
45.2681
45.2715
45.2751
45.279
45.2832
45.2876
45.2923
45.2972
45.3024
45.3077
45.3133
45.319
45.325
45.3312
45.3375
45.344
45.3507
45.3575
45.3645
45.3716
45.3789
45.3863
45.3938
45.4014
45.4091
45.4169
45.4249
45.4329
45.4409
45.4491
45.4573
45.4656
45.4739
45.4823
45.4907
45.4991
45.5076
45.5161
45.5246
45.5331
45.5416
45.55
45.5585
45.567
45.5754
45.5838
45.5922
45.6005
45.6088
45.617
45.6252
45.6333
45.6413
45.6493
45.6572
45.665
45.6727
45.6803
45.6879
45.6953
45.7026
45.7098
45.7169
45.7239
45.7308
45.7375
45.7441
45.7506
45.7569
45.7631
45.7691
45.775
45.7808
45.7864
45.7918
45.7971
45.8022
45.8071
45.8119
45.8165
45.8209
45.8252
45.8293
45.8332
45.8369
45.8404
45.8438
45.8469
45.8499
45.8527
45.8553
45.8576
45.8598
45.8618
45.8637
45.8653
45.8667
45.8679
45.8689
45.8697
45.8703
45.8707
45.8709
51.9263
51.925
51.9224
51.9187
51.9138
51.908
51.9011
51.8933
51.8844
51.8746
51.8637
51.8519
51.8391
51.8254
51.8106
51.795
51.7783
51.7608
51.7423
51.7229
51.7025
51.6813
51.6591
51.6361
51.6121
51.5873
51.5616
51.5351
51.5077
51.4795
51.4504
51.4205
51.3898
51.3582
51.3259
51.2929
51.259
51.2244
51.189
51.1529
51.1161
51.0786
51.0404
51.0015
50.9619
50.9217
50.8808
50.8393
50.7972
50.7545
50.7112
50.6673
50.6229
50.5779
50.5324
50.4864
50.4399
50.3929
50.3454
50.2975
50.2492
50.2004
50.1512
50.1017
50.0518
50.0015
49.9509
49.8999
49.8487
49.7971
49.7453
49.6932
49.6409
49.5884
49.5356
49.4827
49.4296
49.3763
49.3229
49.2693
49.2157
49.1619
49.1081
49.0542
49.0002
48.9463
48.8923
48.8383
48.7843
48.7304
48.6765
48.6227
48.5689
48.5153
48.4617
48.4083
48.355
48.3019
48.2489
48.1961
48.1435
48.0911
48.039
47.987
47.9354
47.8839
47.8328
47.7819
47.7314
47.6811
47.6312
47.5816
47.5324
47.4835
47.435
47.3869
47.3392
47.2918
47.2449
47.1984
47.1523
47.1067
47.0615
47.0168
46.9726
46.9288
46.8855
46.8427
46.8004
46.7586
46.7173
46.6766
46.6364
46.5967
46.5575
46.5189
46.4808
46.4433
46.4064
46.37
46.3342
46.2989
46.2643
46.2302
46.1967
46.1638
46.1314
46.0997
46.0686
46.038
46.0081
45.9787
45.95
45.9218
45.8943
45.8673
45.841
45.8152
45.7901
45.7656
45.7416
45.7183
45.6955
45.6734
45.6518
45.6309
45.6105
45.5907
45.5715
45.5529
45.5349
45.5174
45.5006
45.4842
45.4685
45.4533
45.4387
45.4246
45.4111
45.3981
45.3857
45.3738
45.3624
45.3515
45.3412
45.3314
45.3221
45.3133
45.305
45.2971
45.2898
45.2829
45.2766
45.2706
45.2652
45.2602
45.2556
45.2515
45.2478
45.2445
45.2417
45.2392
45.2372
45.2355
45.2343
45.2334
45.2329
45.2328
45.233
45.2336
45.2345
45.2358
45.2373
45.2392
45.2415
45.244
45.2468
45.2499
45.2533
45.2569
45.2609
45.2651
45.2695
45.2742
45.2791
45.2842
45.2896
45.2951
45.3009
45.3069
45.313
45.3194
45.3259
45.3326
45.3394
45.3464
45.3535
45.3608
45.3682
45.3757
45.3833
45.391
45.3989
45.4068
45.4148
45.4229
45.431
45.4392
45.4475
45.4558
45.4642
45.4726
45.4811
45.4895
45.498
45.5065
45.515
45.5235
45.532
45.5405
45.5489
45.5574
45.5658
45.5741
45.5825
45.5908
45.599
45.6072
45.6153
45.6233
45.6313
45.6392
45.647
45.6547
45.6623
45.6699
45.6773
45.6846
45.6918
45.6989
45.7059
45.7128
45.7195
45.7261
45.7326
45.7389
45.7451
45.7511
45.757
45.7628
45.7683
45.7738
45.7791
45.7842
45.7891
45.7939
45.7985
45.8029
45.8072
45.8113
45.8152
45.8189
45.8224
45.8258
45.8289
45.8319
45.8347
45.8373
45.8396
45.8418
45.8438
45.8457
45.8473
45.8487
45.8499
45.8509
45.8517
45.8523
45.8527
45.8529
51.846
51.8445
51.8415
51.8372
51.8316
51.825
51.8174
51.8089
51.7994
51.7891
51.7779
51.7657
51.7527
51.7388
51.7239
51.7081
51.6915
51.6738
51.6553
51.6359
51.6155
51.5943
51.5721
51.5491
51.5252
51.5004
51.4747
51.4482
51.4208
51.3926
51.3635
51.3336
51.303
51.2715
51.2392
51.2062
51.1723
51.1378
51.1024
51.0664
51.0296
50.9921
50.954
50.9151
50.8756
50.8354
50.7946
50.7532
50.7111
50.6684
50.6252
50.5814
50.537
50.4921
50.4466
50.4007
50.3542
50.3073
50.2599
50.2121
50.1638
50.1151
50.066
50.0165
49.9666
49.9164
49.8659
49.815
49.7638
49.7123
49.6606
49.6086
49.5563
49.5038
49.4512
49.3983
49.3452
49.292
49.2387
49.1852
49.1316
49.0779
49.0242
48.9704
48.9165
48.8626
48.8087
48.7548
48.7009
48.647
48.5932
48.5394
48.4857
48.4322
48.3787
48.3253
48.2721
48.219
48.1661
48.1134
48.0609
48.0086
47.9565
47.9046
47.853
47.8017
47.7506
47.6998
47.6493
47.5992
47.5493
47.4998
47.4506
47.4018
47.3534
47.3053
47.2577
47.2104
47.1635
47.1171
47.0711
47.0255
46.9804
46.9358
46.8916
46.8479
46.8046
46.7619
46.7197
46.6779
46.6367
46.596
46.5558
46.5162
46.4771
46.4385
46.4005
46.3631
46.3262
46.2899
46.2541
46.2189
46.1843
46.1503
46.1168
46.0839
46.0517
46.02
45.9889
45.9584
45.9285
45.8992
45.8705
45.8424
45.8149
45.788
45.7617
45.736
45.7109
45.6864
45.6625
45.6392
45.6165
45.5944
45.5728
45.5519
45.5316
45.5118
45.4927
45.4741
45.4561
45.4387
45.4218
45.4055
45.3898
45.3746
45.36
45.346
45.3325
45.3195
45.3071
45.2952
45.2839
45.2731
45.2627
45.2529
45.2437
45.2349
45.2266
45.2188
45.2115
45.2046
45.1982
45.1923
45.1869
45.1819
45.1773
45.1732
45.1695
45.1663
45.1634
45.161
45.159
45.1574
45.1561
45.1552
45.1547
45.1546
45.1549
45.1554
45.1564
45.1576
45.1592
45.1611
45.1633
45.1659
45.1687
45.1718
45.1752
45.1788
45.1828
45.1869
45.1914
45.1961
45.201
45.2061
45.2115
45.217
45.2228
45.2288
45.2349
45.2413
45.2478
45.2544
45.2613
45.2682
45.2754
45.2826
45.29
45.2975
45.3051
45.3128
45.3207
45.3286
45.3366
45.3447
45.3528
45.361
45.3693
45.3776
45.386
45.3944
45.4028
45.4113
45.4197
45.4282
45.4367
45.4452
45.4537
45.4622
45.4706
45.479
45.4874
45.4958
45.5041
45.5124
45.5206
45.5288
45.5369
45.5449
45.5529
45.5608
45.5686
45.5763
45.5839
45.5914
45.5988
45.6061
45.6133
45.6204
45.6274
45.6343
45.641
45.6476
45.654
45.6604
45.6665
45.6726
45.6785
45.6842
45.6898
45.6952
45.7005
45.7056
45.7105
45.7153
45.7199
45.7243
45.7286
45.7327
45.7366
45.7403
45.7438
45.7471
45.7503
45.7533
45.756
45.7586
45.761
45.7632
45.7652
45.767
45.7686
45.77
45.7712
45.7722
45.773
45.7737
45.7741
45.7743
51.8145
51.8131
51.8101
51.8058
51.8003
51.7938
51.7862
51.7777
51.7682
51.7579
51.7467
51.7345
51.7215
51.7075
51.6926
51.6768
51.6601
51.6424
51.6239
51.6044
51.584
51.5627
51.5406
51.5175
51.4936
51.4687
51.4431
51.4165
51.3891
51.3609
51.3319
51.302
51.2713
51.2398
51.2075
51.1745
51.1407
51.1061
51.0708
51.0347
50.9979
50.9605
50.9223
50.8834
50.8439
50.8037
50.7629
50.7215
50.6794
50.6367
50.5935
50.5497
50.5053
50.4604
50.415
50.369
50.3226
50.2756
50.2282
50.1804
50.1321
50.0834
50.0343
49.9848
49.935
49.8848
49.8342
49.7834
49.7322
49.6807
49.629
49.577
49.5247
49.4723
49.4196
49.3667
49.3137
49.2605
49.2071
49.1537
49.1001
49.0464
48.9926
48.9388
48.885
48.8311
48.7772
48.7233
48.6694
48.6155
48.5617
48.5079
48.4543
48.4007
48.3472
48.2939
48.2407
48.1876
48.1347
48.082
48.0295
47.9772
47.9251
47.8733
47.8217
47.7703
47.7193
47.6685
47.618
47.5679
47.518
47.4685
47.4194
47.3706
47.3221
47.2741
47.2264
47.1792
47.1323
47.0859
47.0399
46.9944
46.9493
46.9046
46.8604
46.8167
46.7735
46.7308
46.6886
46.6469
46.6057
46.565
46.5248
46.4852
46.4461
46.4075
46.3695
46.3321
46.2952
46.2589
46.2232
46.188
46.1534
46.1194
46.0859
46.0531
46.0208
45.9891
45.9581
45.9276
45.8977
45.8684
45.8397
45.8116
45.7841
45.7572
45.7309
45.7053
45.6802
45.6557
45.6318
45.6085
45.5858
45.5637
45.5422
45.5213
45.501
45.4812
45.4621
45.4435
45.4255
45.4081
45.3913
45.375
45.3593
45.3442
45.3296
45.3155
45.3021
45.2891
45.2767
45.2648
45.2535
45.2427
45.2324
45.2226
45.2133
45.2045
45.1963
45.1885
45.1812
45.1743
45.168
45.1621
45.1567
45.1517
45.1471
45.143
45.1394
45.1361
45.1333
45.1309
45.1288
45.1272
45.126
45.1251
45.1246
45.1245
45.1248
45.1254
45.1263
45.1276
45.1292
45.1311
45.1333
45.1358
45.1387
45.1418
45.1452
45.1489
45.1528
45.157
45.1614
45.1661
45.171
45.1762
45.1816
45.1871
45.1929
45.1989
45.205
45.2114
45.2179
45.2246
45.2314
45.2384
45.2455
45.2528
45.2602
45.2677
45.2753
45.2831
45.2909
45.2988
45.3068
45.3149
45.3231
45.3313
45.3395
45.3479
45.3562
45.3647
45.3731
45.3815
45.39
45.3985
45.407
45.4155
45.424
45.4325
45.4409
45.4494
45.4578
45.4661
45.4745
45.4827
45.491
45.4991
45.5072
45.5153
45.5232
45.5311
45.5389
45.5466
45.5543
45.5618
45.5692
45.5765
45.5837
45.5908
45.5978
45.6047
45.6114
45.618
45.6244
45.6308
45.6369
45.643
45.6489
45.6546
45.6602
45.6656
45.6709
45.676
45.681
45.6857
45.6903
45.6948
45.699
45.7031
45.707
45.7107
45.7142
45.7176
45.7207
45.7237
45.7265
45.7291
45.7314
45.7336
45.7356
45.7374
45.7391
45.7405
45.7417
45.7427
45.7435
45.7441
45.7445
45.7447
51.7415
51.74
51.7368
51.7324
51.7265
51.7197
51.7117
51.7029
51.6931
51.6825
51.671
51.6587
51.6454
51.6313
51.6162
51.6003
51.5835
51.5658
51.5472
51.5277
51.5073
51.486
51.4638
51.4407
51.4167
51.3919
51.3662
51.3397
51.3123
51.2841
51.2551
51.2252
51.1945
51.163
51.1308
51.0977
51.0639
51.0294
50.9941
50.9581
50.9213
50.8839
50.8457
50.8069
50.7674
50.7273
50.6865
50.6451
50.603
50.5604
50.5172
50.4734
50.4291
50.3842
50.3388
50.2929
50.2465
50.1996
50.1522
50.1044
50.0562
50.0075
49.9585
49.909
49.8592
49.8091
49.7586
49.7077
49.6566
49.6052
49.5535
49.5015
49.4493
49.3969
49.3443
49.2914
49.2385
49.1853
49.132
49.0786
49.025
48.9714
48.9177
48.8639
48.8101
48.7563
48.7024
48.6486
48.5947
48.5409
48.4872
48.4335
48.3798
48.3263
48.2729
48.2196
48.1664
48.1134
48.0606
48.0079
47.9555
47.9032
47.8512
47.7994
47.7478
47.6965
47.6455
47.5948
47.5444
47.4943
47.4445
47.395
47.3459
47.2972
47.2488
47.2008
47.1532
47.106
47.0592
47.0128
46.9668
46.9213
46.8763
46.8317
46.7876
46.7439
46.7007
46.658
46.6159
46.5742
46.533
46.4924
46.4523
46.4127
46.3736
46.3351
46.2972
46.2598
46.2229
46.1867
46.151
46.1158
46.0813
46.0473
46.0139
45.9811
45.9488
45.9172
45.8862
45.8557
45.8259
45.7966
45.768
45.7399
45.7125
45.6856
45.6593
45.6337
45.6086
45.5842
45.5603
45.5371
45.5144
45.4923
45.4709
45.45
45.4297
45.41
45.3909
45.3723
45.3544
45.337
45.3202
45.3039
45.2883
45.2731
45.2586
45.2446
45.2311
45.2182
45.2058
45.194
45.1826
45.1718
45.1616
45.1518
45.1425
45.1338
45.1255
45.1178
45.1105
45.1037
45.0973
45.0914
45.086
45.0811
45.0765
45.0725
45.0688
45.0656
45.0627
45.0603
45.0583
45.0567
45.0555
45.0547
45.0542
45.0541
45.0543
45.0549
45.0559
45.0572
45.0588
45.0607
45.0629
45.0655
45.0683
45.0714
45.0748
45.0785
45.0825
45.0867
45.0911
45.0958
45.1007
45.1059
45.1113
45.1168
45.1226
45.1286
45.1348
45.1411
45.1476
45.1543
45.1611
45.1681
45.1753
45.1825
45.1899
45.1974
45.2051
45.2128
45.2206
45.2285
45.2366
45.2446
45.2528
45.261
45.2693
45.2776
45.286
45.2944
45.3028
45.3113
45.3198
45.3282
45.3367
45.3452
45.3537
45.3622
45.3706
45.3791
45.3875
45.3958
45.4042
45.4124
45.4207
45.4288
45.4369
45.445
45.4529
45.4608
45.4686
45.4763
45.4839
45.4915
45.4989
45.5062
45.5134
45.5205
45.5275
45.5343
45.541
45.5476
45.5541
45.5604
45.5666
45.5726
45.5785
45.5843
45.5898
45.5953
45.6005
45.6056
45.6106
45.6153
45.6199
45.6244
45.6286
45.6327
45.6366
45.6403
45.6438
45.6472
45.6503
45.6533
45.6561
45.6586
45.661
45.6632
45.6652
45.667
45.6686
45.67
45.6713
45.6723
45.6731
45.6737
45.6741
45.6743
51.7017
51.7002
51.6971
51.6927
51.687
51.6802
51.6724
51.6636
51.6538
51.6432
51.6317
51.6194
51.6061
51.5919
51.5769
51.5609
51.544
51.5263
51.5076
51.4881
51.4676
51.4463
51.4241
51.401
51.377
51.3522
51.3265
51.2999
51.2725
51.2443
51.2152
51.1853
51.1546
51.1231
51.0909
51.0578
51.024
50.9895
50.9542
50.9181
50.8814
50.8439
50.8058
50.7669
50.7274
50.6873
50.6465
50.6051
50.563
50.5204
50.4772
50.4334
50.3891
50.3442
50.2988
50.2529
50.2065
50.1596
50.1122
50.0644
50.0162
49.9675
49.9185
49.869
49.8192
49.769
49.7185
49.6677
49.6166
49.5651
49.5134
49.4615
49.4093
49.3569
49.3043
49.2514
49.1984
49.1453
49.092
49.0386
48.985
48.9314
48.8777
48.8239
48.7701
48.7163
48.6624
48.6086
48.5547
48.5009
48.4472
48.3935
48.3399
48.2864
48.2329
48.1796
48.1265
48.0735
48.0207
47.968
47.9156
47.8633
47.8113
47.7595
47.7079
47.6567
47.6057
47.5549
47.5045
47.4544
47.4046
47.3552
47.3061
47.2573
47.209
47.161
47.1134
47.0662
47.0194
46.973
46.9271
46.8816
46.8365
46.792
46.7478
46.7042
46.661
46.6184
46.5762
46.5345
46.4934
46.4528
46.4127
46.3731
46.334
46.2956
46.2576
46.2202
46.1834
46.1471
46.1114
46.0763
46.0418
46.0078
45.9744
45.9416
45.9094
45.8778
45.8468
45.8163
45.7865
45.7573
45.7286
45.7006
45.6731
45.6463
45.6201
45.5944
45.5694
45.545
45.5211
45.4979
45.4752
45.4532
45.4317
45.4109
45.3906
45.3709
45.3518
45.3333
45.3153
45.298
45.2812
45.265
45.2493
45.2342
45.2196
45.2056
45.1922
45.1793
45.1669
45.1551
45.1438
45.133
45.1228
45.113
45.1038
45.0951
45.0868
45.0791
45.0718
45.065
45.0587
45.0528
45.0474
45.0425
45.038
45.0339
45.0302
45.027
45.0242
45.0218
45.0199
45.0183
45.0171
45.0162
45.0158
45.0157
45.016
45.0166
45.0175
45.0188
45.0204
45.0224
45.0246
45.0272
45.03
45.0332
45.0366
45.0403
45.0443
45.0485
45.0529
45.0576
45.0626
45.0677
45.0731
45.0787
45.0845
45.0905
45.0967
45.103
45.1096
45.1163
45.1231
45.1301
45.1373
45.1445
45.1519
45.1595
45.1671
45.1748
45.1827
45.1906
45.1986
45.2067
45.2149
45.2231
45.2314
45.2397
45.2481
45.2565
45.265
45.2734
45.2819
45.2904
45.2989
45.3074
45.3159
45.3244
45.3329
45.3413
45.3497
45.3581
45.3664
45.3747
45.3829
45.3911
45.3992
45.4072
45.4152
45.4231
45.4309
45.4386
45.4462
45.4538
45.4612
45.4685
45.4757
45.4828
45.4898
45.4967
45.5034
45.51
45.5164
45.5228
45.529
45.535
45.5409
45.5466
45.5522
45.5577
45.5629
45.568
45.573
45.5777
45.5824
45.5868
45.591
45.5951
45.599
45.6027
45.6063
45.6096
45.6128
45.6157
45.6185
45.6211
45.6235
45.6257
45.6277
45.6295
45.6311
45.6325
45.6337
45.6347
45.6355
45.6361
45.6365
45.6367
51.6339
51.6324
51.6292
51.6248
51.619
51.6121
51.604
51.5951
51.5852
51.5744
51.5628
51.5503
51.5368
51.5226
51.5074
51.4914
51.4744
51.4566
51.4379
51.4183
51.3978
51.3764
51.3541
51.331
51.307
51.2822
51.2564
51.2299
51.2024
51.1742
51.1451
51.1153
51.0846
51.0531
51.0208
50.9878
50.954
50.9194
50.8841
50.8481
50.8113
50.7739
50.7357
50.6969
50.6574
50.6173
50.5765
50.5351
50.4931
50.4505
50.4073
50.3635
50.3192
50.2744
50.229
50.1831
50.1367
50.0898
50.0425
49.9947
49.9465
49.8979
49.8488
49.7994
49.7496
49.6995
49.649
49.5982
49.5471
49.4957
49.444
49.3921
49.3399
49.2875
49.2349
49.1821
49.1291
49.076
49.0228
48.9694
48.9159
48.8623
48.8086
48.7548
48.7011
48.6472
48.5934
48.5396
48.4858
48.432
48.3783
48.3246
48.271
48.2175
48.1642
48.1109
48.0578
48.0048
47.952
47.8994
47.847
47.7947
47.7427
47.691
47.6395
47.5882
47.5372
47.4866
47.4362
47.3861
47.3363
47.2869
47.2379
47.1892
47.1408
47.0929
47.0453
46.9981
46.9514
46.905
46.8591
46.8137
46.7687
46.7241
46.68
46.6364
46.5933
46.5506
46.5085
46.4669
46.4258
46.3852
46.3451
46.3055
46.2665
46.2281
46.1902
46.1528
46.116
46.0798
46.0441
46.009
45.9745
45.9406
45.9072
45.8745
45.8423
45.8107
45.7797
45.7493
45.7195
45.6903
45.6617
45.6337
45.6063
45.5795
45.5532
45.5276
45.5026
45.4782
45.4544
45.4312
45.4086
45.3866
45.3651
45.3443
45.3241
45.3044
45.2853
45.2668
45.2489
45.2316
45.2148
45.1986
45.183
45.1679
45.1534
45.1394
45.126
45.1131
45.1008
45.089
45.0777
45.0669
45.0567
45.047
45.0378
45.029
45.0208
45.0131
45.0058
44.9991
44.9928
44.9869
44.9815
44.9766
44.9721
44.9681
44.9645
44.9613
44.9585
44.9561
44.9541
44.9526
44.9514
44.9506
44.9501
44.95
44.9503
44.951
44.9519
44.9533
44.9549
44.9568
44.9591
44.9617
44.9645
44.9677
44.9711
44.9748
44.9788
44.983
44.9875
44.9922
44.9972
45.0024
45.0077
45.0133
45.0192
45.0252
45.0313
45.0377
45.0442
45.0509
45.0578
45.0648
45.072
45.0793
45.0867
45.0942
45.1018
45.1096
45.1174
45.1254
45.1334
45.1415
45.1497
45.1579
45.1662
45.1745
45.1829
45.1913
45.1998
45.2083
45.2168
45.2253
45.2338
45.2423
45.2508
45.2592
45.2677
45.2762
45.2846
45.2929
45.3013
45.3096
45.3178
45.326
45.3341
45.3421
45.3501
45.358
45.3658
45.3735
45.3811
45.3887
45.3961
45.4034
45.4106
45.4177
45.4247
45.4315
45.4383
45.4449
45.4513
45.4577
45.4638
45.4699
45.4758
45.4815
45.4871
45.4925
45.4978
45.5029
45.5079
45.5126
45.5172
45.5217
45.5259
45.53
45.5339
45.5376
45.5411
45.5445
45.5476
45.5506
45.5534
45.556
45.5584
45.5606
45.5626
45.5644
45.566
45.5674
45.5686
45.5696
45.5704
45.571
45.5714
45.5716
51.5885
51.587
51.584
51.5796
51.5739
51.5671
51.5592
51.5503
51.5404
51.5297
51.518
51.5055
51.4921
51.4778
51.4626
51.4465
51.4295
51.4116
51.3929
51.3732
51.3527
51.3313
51.309
51.2858
51.2618
51.2369
51.2112
51.1846
51.1571
51.1289
51.0998
51.0699
51.0392
51.0077
50.9754
50.9423
50.9085
50.8739
50.8386
50.8026
50.7658
50.7283
50.6902
50.6514
50.6119
50.5717
50.5309
50.4895
50.4475
50.4049
50.3617
50.3179
50.2735
50.2287
50.1833
50.1374
50.091
50.0441
49.9968
49.949
49.9007
49.8521
49.8031
49.7536
49.7038
49.6537
49.6032
49.5524
49.5013
49.4499
49.3982
49.3462
49.2941
49.2417
49.1891
49.1363
49.0833
49.0302
48.9769
48.9235
48.87
48.8164
48.7627
48.709
48.6552
48.6014
48.5475
48.4937
48.4399
48.3861
48.3324
48.2787
48.2251
48.1716
48.1183
48.065
48.0119
47.9589
47.9061
47.8535
47.8011
47.7488
47.6968
47.6451
47.5936
47.5423
47.4913
47.4407
47.3903
47.3402
47.2905
47.241
47.192
47.1433
47.0949
47.047
46.9994
46.9523
46.9055
46.8592
46.8133
46.7678
46.7228
46.6783
46.6342
46.5906
46.5475
46.5049
46.4627
46.4211
46.38
46.3394
46.2993
46.2598
46.2208
46.1824
46.1445
46.1071
46.0704
46.0341
45.9985
45.9634
45.9289
45.895
45.8617
45.8289
45.7967
45.7652
45.7342
45.7038
45.674
45.6448
45.6162
45.5882
45.5608
45.534
45.5079
45.4823
45.4573
45.4329
45.4091
45.3859
45.3633
45.3413
45.3199
45.2991
45.2789
45.2592
45.2402
45.2217
45.2038
45.1865
45.1697
45.1535
45.1379
45.1229
45.1084
45.0944
45.081
45.0682
45.0558
45.0441
45.0328
45.0221
45.0119
45.0022
44.993
44.9843
44.9761
44.9684
44.9611
44.9544
44.9481
44.9423
44.9369
44.932
44.9275
44.9235
44.9199
44.9167
44.914
44.9116
44.9097
44.9081
44.907
44.9062
44.9058
44.9057
44.906
44.9067
44.9077
44.909
44.9106
44.9126
44.9149
44.9175
44.9204
44.9236
44.927
44.9307
44.9347
44.939
44.9435
44.9482
44.9532
44.9584
44.9638
44.9694
44.9752
44.9812
44.9874
44.9938
45.0004
45.0071
45.014
45.021
45.0282
45.0355
45.0429
45.0504
45.0581
45.0659
45.0737
45.0817
45.0897
45.0978
45.106
45.1143
45.1226
45.1309
45.1393
45.1478
45.1562
45.1647
45.1732
45.1817
45.1902
45.1988
45.2073
45.2158
45.2242
45.2327
45.2411
45.2495
45.2578
45.2661
45.2744
45.2826
45.2907
45.2987
45.3067
45.3146
45.3224
45.3301
45.3378
45.3453
45.3528
45.3601
45.3673
45.3744
45.3814
45.3883
45.395
45.4016
45.4081
45.4144
45.4206
45.4266
45.4325
45.4383
45.4439
45.4493
45.4546
45.4597
45.4646
45.4694
45.474
45.4785
45.4827
45.4868
45.4907
45.4944
45.498
45.5013
45.5045
45.5074
45.5102
45.5128
45.5152
45.5174
45.5194
45.5212
45.5228
45.5242
45.5254
45.5264
45.5272
45.5278
45.5282
45.5284
51.5243
51.5228
51.5198
51.5154
51.5097
51.5028
51.4949
51.486
51.476
51.4652
51.4535
51.4409
51.4274
51.413
51.3977
51.3815
51.3645
51.3465
51.3277
51.308
51.2874
51.266
51.2437
51.2205
51.1964
51.1715
51.1457
51.1191
51.0916
51.0633
51.0342
51.0043
50.9736
50.9421
50.9098
50.8767
50.8429
50.8083
50.773
50.7369
50.7001
50.6627
50.6245
50.5857
50.5462
50.506
50.4652
50.4238
50.3818
50.3392
50.296
50.2522
50.2079
50.163
50.1176
50.0717
50.0253
49.9785
49.9311
49.8833
49.8351
49.7865
49.7374
49.688
49.6382
49.5881
49.5376
49.4868
49.4357
49.3843
49.3326
49.2807
49.2285
49.1761
49.1235
49.0707
49.0178
48.9647
48.9114
48.858
48.8045
48.7509
48.6973
48.6435
48.5897
48.5359
48.4821
48.4283
48.3745
48.3207
48.267
48.2134
48.1598
48.1063
48.0529
47.9997
47.9466
47.8936
47.8408
47.7882
47.7358
47.6836
47.6316
47.5799
47.5284
47.4772
47.4262
47.3756
47.3252
47.2751
47.2254
47.176
47.127
47.0783
47.03
46.982
46.9345
46.8873
46.8406
46.7943
46.7484
46.703
46.658
46.6135
46.5694
46.5258
46.4827
46.4401
46.398
46.3564
46.3153
46.2748
46.2347
46.1952
46.1563
46.1178
46.08
46.0426
46.0059
45.9697
45.9341
45.899
45.8645
45.8306
45.7973
45.7646
45.7325
45.7009
45.6699
45.6396
45.6098
45.5807
45.5521
45.5241
45.4968
45.47
45.4438
45.4183
45.3933
45.3689
45.3452
45.322
45.2994
45.2775
45.2561
45.2353
45.2151
45.1955
45.1764
45.158
45.1401
45.1228
45.1061
45.0899
45.0743
45.0593
45.0448
45.0309
45.0176
45.0047
44.9924
44.9807
44.9694
44.9587
44.9485
44.9389
44.9297
44.921
44.9129
44.9052
44.898
44.8912
44.885
44.8792
44.8739
44.869
44.8645
44.8605
44.8569
44.8538
44.8511
44.8487
44.8468
44.8453
44.8441
44.8434
44.843
44.8429
44.8433
44.8439
44.8449
44.8463
44.848
44.85
44.8523
44.8549
44.8578
44.861
44.8645
44.8682
44.8722
44.8765
44.881
44.8857
44.8907
44.8959
44.9014
44.907
44.9128
44.9189
44.9251
44.9315
44.9381
44.9448
44.9517
44.9587
44.9659
44.9732
44.9807
44.9882
44.9959
45.0037
45.0115
45.0195
45.0276
45.0357
45.0439
45.0521
45.0605
45.0688
45.0772
45.0857
45.0942
45.1026
45.1112
45.1197
45.1282
45.1367
45.1453
45.1538
45.1622
45.1707
45.1791
45.1875
45.1959
45.2042
45.2124
45.2206
45.2287
45.2368
45.2448
45.2527
45.2605
45.2683
45.2759
45.2834
45.2909
45.2982
45.3054
45.3125
45.3195
45.3264
45.3331
45.3398
45.3462
45.3526
45.3588
45.3648
45.3707
45.3765
45.3821
45.3875
45.3928
45.3979
45.4028
45.4076
45.4122
45.4167
45.4209
45.425
45.4289
45.4326
45.4362
45.4395
45.4427
45.4457
45.4484
45.451
45.4534
45.4556
45.4576
45.4594
45.461
45.4624
45.4636
45.4647
45.4655
45.4661
45.4665
45.4667
51.4752
51.4738
51.4708
51.4665
51.4609
51.4541
51.4463
51.4374
51.4275
51.4168
51.405
51.3924
51.3789
51.3645
51.3492
51.333
51.3159
51.2979
51.2791
51.2594
51.2387
51.2172
51.1949
51.1716
51.1475
51.1226
51.0968
51.0701
51.0426
51.0143
50.9852
50.9552
50.9245
50.8929
50.8606
50.8275
50.7936
50.759
50.7237
50.6876
50.6508
50.6133
50.5752
50.5363
50.4968
50.4566
50.4158
50.3744
50.3323
50.2897
50.2465
50.2027
50.1583
50.1134
50.068
50.0221
49.9757
49.9288
49.8815
49.8337
49.7854
49.7368
49.6877
49.6383
49.5885
49.5383
49.4878
49.437
49.3859
49.3344
49.2828
49.2308
49.1786
49.1262
49.0736
49.0208
48.9678
48.9147
48.8614
48.808
48.7545
48.7009
48.6472
48.5935
48.5397
48.4859
48.4321
48.3782
48.3244
48.2706
48.2169
48.1632
48.1097
48.0562
48.0028
47.9495
47.8964
47.8435
47.7907
47.738
47.6856
47.6334
47.5814
47.5297
47.4782
47.4269
47.376
47.3253
47.2749
47.2249
47.1751
47.1257
47.0767
47.028
46.9797
46.9318
46.8842
46.8371
46.7903
46.744
46.6982
46.6527
46.6077
46.5632
46.5192
46.4756
46.4325
46.3899
46.3478
46.3062
46.2651
46.2246
46.1845
46.145
46.1061
46.0677
46.0298
45.9925
45.9557
45.9195
45.8839
45.8489
45.8144
45.7805
45.7472
45.7145
45.6824
45.6509
45.6199
45.5896
45.5598
45.5307
45.5021
45.4742
45.4468
45.4201
45.3939
45.3684
45.3434
45.3191
45.2953
45.2722
45.2496
45.2277
45.2063
45.1856
45.1654
45.1458
45.1268
45.1083
45.0905
45.0732
45.0565
45.0404
45.0248
45.0098
44.9954
44.9815
44.9681
44.9553
44.943
44.9313
44.9201
44.9094
44.8993
44.8896
44.8805
44.8718
44.8637
44.856
44.8488
44.8421
44.8359
44.8301
44.8248
44.82
44.8155
44.8116
44.808
44.8049
44.8022
44.7999
44.798
44.7965
44.7953
44.7946
44.7942
44.7942
44.7946
44.7953
44.7963
44.7977
44.7994
44.8014
44.8038
44.8064
44.8093
44.8125
44.816
44.8198
44.8238
44.8281
44.8327
44.8374
44.8424
44.8477
44.8531
44.8588
44.8646
44.8707
44.8769
44.8834
44.89
44.8967
44.9036
44.9107
44.9179
44.9252
44.9327
44.9403
44.948
44.9558
44.9637
44.9716
44.9797
44.9879
44.9961
45.0043
45.0127
45.0211
45.0295
45.038
45.0464
45.055
45.0635
45.072
45.0806
45.0891
45.0976
45.1062
45.1147
45.1231
45.1316
45.14
45.1484
45.1567
45.1649
45.1731
45.1813
45.1893
45.1973
45.2053
45.2131
45.2208
45.2285
45.236
45.2435
45.2508
45.2581
45.2652
45.2722
45.2791
45.2858
45.2924
45.2989
45.3053
45.3115
45.3175
45.3234
45.3292
45.3348
45.3403
45.3455
45.3507
45.3556
45.3604
45.365
45.3695
45.3737
45.3778
45.3817
45.3854
45.389
45.3923
45.3955
45.3985
45.4013
45.4039
45.4063
45.4085
45.4105
45.4123
45.4139
45.4153
45.4165
45.4175
45.4183
45.4189
45.4193
45.4195
51.4135
51.4121
51.4091
51.4049
51.3993
51.3926
51.3847
51.3758
51.3659
51.3551
51.3434
51.3307
51.3171
51.3027
51.2873
51.2711
51.2539
51.2359
51.217
51.1972
51.1765
51.155
51.1326
51.1093
51.0851
51.0601
51.0343
51.0076
50.9801
50.9517
50.9226
50.8926
50.8618
50.8303
50.7979
50.7648
50.7309
50.6963
50.6609
50.6249
50.5881
50.5505
50.5124
50.4735
50.4339
50.3938
50.3529
50.3115
50.2694
50.2268
50.1835
50.1397
50.0954
50.0505
50.0051
49.9591
49.9127
49.8658
49.8184
49.7706
49.7224
49.6737
49.6247
49.5752
49.5254
49.4752
49.4247
49.3739
49.3227
49.2713
49.2196
49.1677
49.1155
49.0631
49.0105
48.9577
48.9047
48.8515
48.7982
48.7448
48.6913
48.6377
48.584
48.5303
48.4765
48.4227
48.3688
48.315
48.2612
48.2074
48.1537
48.1
48.0464
47.9929
47.9395
47.8863
47.8332
47.7802
47.7274
47.6748
47.6224
47.5702
47.5182
47.4664
47.4149
47.3637
47.3127
47.2621
47.2117
47.1617
47.1119
47.0625
47.0135
46.9648
46.9165
46.8686
46.821
46.7739
46.7272
46.6809
46.635
46.5896
46.5446
46.5001
46.456
46.4125
46.3694
46.3268
46.2847
46.2431
46.2021
46.1615
46.1215
46.082
46.0431
46.0047
45.9668
45.9295
45.8928
45.8566
45.821
45.786
45.7516
45.7177
45.6844
45.6517
45.6196
45.5881
45.5572
45.5269
45.4971
45.468
45.4395
45.4115
45.3842
45.3575
45.3314
45.3058
45.2809
45.2566
45.2329
45.2097
45.1872
45.1653