/*--------------------------------*- C++ -*----------------------------------*\
| =========                 |                                                 |
| \\      /  F ield         | OpenFOAM: The Open Source CFD Toolbox           |
|  \\    /   O peration     | Version:  2212                                  |
|   \\  /    A nd           | Website:  www.openfoam.com                      |
|    \\/     M anipulation  |                                                 |
\*---------------------------------------------------------------------------*/
FoamFile
{
    version     2.0;
    format      ascii;
    arch        "LSB;label=32;scalar=64";
    class       volScalarField;
    location    "980";
    object      p_rgh;
}
// * * * * * * * * * * * * * * * * * * * * * * * * * * * * * * * * * * * * * //

dimensions      [1 -1 -2 0 0 0 0];

internalField   nonuniform List<scalar> 
204800
(
52.0468
52.0462
52.0445
52.0423
52.039
52.0348
52.0293
52.0226
52.0147
52.0056
51.9953
51.9839
51.9714
51.9578
51.9431
51.9275
51.9109
51.8934
51.8749
51.8554
51.8351
51.8138
51.7916
51.7685
51.7445
51.7196
51.6939
51.6673
51.6398
51.6115
51.5823
51.5523
51.5215
51.4899
51.4575
51.4243
51.3904
51.3556
51.3202
51.284
51.2471
51.2094
51.1711
51.1321
51.0924
51.052
51.011
50.9694
50.9271
50.8843
50.8409
50.7968
50.7523
50.7072
50.6615
50.6154
50.5687
50.5216
50.4739
50.4259
50.3774
50.3285
50.2791
50.2294
50.1793
50.1289
50.0781
50.027
49.9756
49.9239
49.8719
49.8196
49.7671
49.7144
49.6615
49.6084
49.5551
49.5016
49.448
49.3943
49.3404
49.2865
49.2325
49.1784
49.1243
49.0701
49.016
48.9618
48.9076
48.8535
48.7994
48.7454
48.6915
48.6376
48.5839
48.5303
48.4768
48.4235
48.3703
48.3173
48.2646
48.212
48.1596
48.1075
48.0556
48.004
47.9527
47.9017
47.8509
47.8005
47.7504
47.7006
47.6512
47.6021
47.5534
47.5051
47.4572
47.4097
47.3626
47.3159
47.2696
47.2238
47.1785
47.1336
47.0891
47.0452
47.0017
46.9587
46.9163
46.8743
46.8329
46.7919
46.7515
46.7116
46.6723
46.6335
46.5953
46.5576
46.5205
46.484
46.448
46.4126
46.3777
46.3435
46.3098
46.2768
46.2443
46.2124
46.1811
46.1504
46.1203
46.0908
46.0619
46.0336
46.0059
45.9788
45.9523
45.9264
45.9011
45.8765
45.8524
45.8289
45.806
45.7837
45.7621
45.741
45.7205
45.7005
45.6812
45.6625
45.6443
45.6267
45.6097
45.5933
45.5774
45.5621
45.5474
45.5332
45.5195
45.5064
45.4939
45.4819
45.4704
45.4594
45.449
45.439
45.4296
45.4207
45.4123
45.4044
45.3969
45.39
45.3835
45.3775
45.3719
45.3668
45.3622
45.3579
45.3542
45.3508
45.3479
45.3453
45.3432
45.3415
45.3401
45.3392
45.3386
45.3384
45.3385
45.339
45.3399
45.341
45.3425
45.3444
45.3465
45.349
45.3517
45.3548
45.3581
45.3617
45.3655
45.3696
45.374
45.3786
45.3835
45.3886
45.3938
45.3994
45.4051
45.411
45.4171
45.4234
45.4298
45.4364
45.4432
45.4501
45.4572
45.4644
45.4718
45.4792
45.4868
45.4945
45.5023
45.5101
45.5181
45.5262
45.5343
45.5424
45.5507
45.559
45.5673
45.5757
45.5841
45.5925
45.6009
45.6094
45.6178
45.6263
45.6348
45.6432
45.6516
45.66
45.6684
45.6768
45.6851
45.6933
45.7015
45.7096
45.7177
45.7257
45.7337
45.7415
45.7493
45.757
45.7646
45.7721
45.7795
45.7868
45.794
45.8011
45.8081
45.8149
45.8216
45.8282
45.8346
45.841
45.8471
45.8531
45.859
45.8648
45.8703
45.8758
45.881
45.8861
45.891
45.8958
45.9004
45.9048
45.9091
45.9131
45.917
45.9207
45.9243
45.9276
45.9307
45.9337
45.9365
45.9391
45.9414
45.9436
45.9456
45.9474
45.949
45.9504
45.9516
45.9526
45.9535
45.9541
45.9545
45.9547
51.9565
51.9552
51.9526
51.9489
51.944
51.9382
51.9313
51.9234
51.9146
51.9048
51.8939
51.8821
51.8693
51.8556
51.8409
51.8252
51.8086
51.791
51.7725
51.7531
51.7327
51.7115
51.6893
51.6663
51.6423
51.6175
51.5918
51.5652
51.5378
51.5095
51.4804
51.4504
51.4197
51.3881
51.3558
51.3227
51.2888
51.2541
51.2187
51.1826
51.1457
51.1082
51.0699
51.0309
50.9913
50.951
50.9101
50.8686
50.8264
50.7836
50.7403
50.6963
50.6518
50.6068
50.5612
50.5152
50.4686
50.4215
50.374
50.326
50.2776
50.2288
50.1796
50.1299
50.08
50.0296
49.9789
49.9279
49.8766
49.8249
49.7731
49.7209
49.6685
49.6159
49.5631
49.5101
49.4569
49.4035
49.35
49.2964
49.2426
49.1888
49.1349
49.0809
49.0269
48.9728
48.9187
48.8647
48.8106
48.7566
48.7026
48.6487
48.5949
48.5411
48.4875
48.434
48.3806
48.3274
48.2743
48.2214
48.1687
48.1163
48.064
48.012
47.9602
47.9087
47.8575
47.8065
47.7559
47.7055
47.6555
47.6058
47.5565
47.5075
47.4589
47.4107
47.3629
47.3154
47.2684
47.2218
47.1757
47.1299
47.0847
47.0399
46.9955
46.9516
46.9083
46.8654
46.823
46.7811
46.7397
46.6989
46.6585
46.6187
46.5795
46.5408
46.5026
46.465
46.428
46.3915
46.3556
46.3202
46.2855
46.2513
46.2177
46.1847
46.1522
46.1204
46.0892
46.0585
46.0285
45.9991
45.9702
45.942
45.9143
45.8873
45.8608
45.835
45.8098
45.7851
45.7611
45.7377
45.7148
45.6926
45.671
45.6499
45.6294
45.6096
45.5903
45.5716
45.5534
45.5359
45.5189
45.5025
45.4867
45.4714
45.4567
45.4425
45.4289
45.4158
45.4033
45.3913
45.3799
45.3689
45.3585
45.3486
45.3392
45.3303
45.3219
45.314
45.3066
45.2996
45.2932
45.2872
45.2816
45.2765
45.2719
45.2677
45.2639
45.2605
45.2576
45.2551
45.253
45.2512
45.2499
45.2489
45.2484
45.2482
45.2483
45.2488
45.2496
45.2508
45.2523
45.2542
45.2563
45.2587
45.2615
45.2645
45.2678
45.2714
45.2753
45.2794
45.2838
45.2884
45.2932
45.2983
45.3036
45.3091
45.3148
45.3207
45.3268
45.333
45.3395
45.3461
45.3528
45.3598
45.3668
45.374
45.3814
45.3888
45.3964
45.404
45.4118
45.4197
45.4276
45.4356
45.4437
45.4519
45.4601
45.4684
45.4767
45.4851
45.4935
45.5019
45.5103
45.5187
45.5272
45.5356
45.5441
45.5525
45.5609
45.5693
45.5777
45.586
45.5943
45.6025
45.6107
45.6188
45.6269
45.6349
45.6428
45.6507
45.6584
45.6661
45.6737
45.6812
45.6886
45.6959
45.7031
45.7101
45.7171
45.7239
45.7306
45.7372
45.7436
45.7499
45.7561
45.7621
45.7679
45.7737
45.7792
45.7846
45.7899
45.795
45.7999
45.8047
45.8092
45.8136
45.8179
45.8219
45.8258
45.8295
45.833
45.8364
45.8395
45.8425
45.8452
45.8478
45.8502
45.8524
45.8544
45.8562
45.8578
45.8592
45.8604
45.8614
45.8622
45.8628
45.8632
45.8634
51.9373
51.9361
51.9334
51.9298
51.9249
51.9191
51.9122
51.9043
51.8954
51.8856
51.8747
51.8629
51.8501
51.8363
51.8216
51.8059
51.7893
51.7717
51.7532
51.7337
51.7134
51.6921
51.6699
51.6468
51.6229
51.598
51.5723
51.5457
51.5183
51.49
51.4609
51.431
51.4002
51.3687
51.3363
51.3032
51.2693
51.2347
51.1993
51.1631
51.1263
51.0887
51.0504
51.0115
50.9719
50.9316
50.8907
50.8491
50.807
50.7642
50.7209
50.6769
50.6324
50.5874
50.5419
50.4958
50.4492
50.4022
50.3546
50.3067
50.2583
50.2094
50.1602
50.1106
50.0606
50.0103
49.9596
49.9086
49.8572
49.8056
49.7538
49.7016
49.6492
49.5966
49.5438
49.4908
49.4376
49.3842
49.3307
49.2771
49.2234
49.1696
49.1156
49.0617
49.0077
48.9536
48.8995
48.8455
48.7914
48.7374
48.6834
48.6295
48.5757
48.522
48.4683
48.4148
48.3615
48.3082
48.2552
48.2023
48.1496
48.0972
48.0449
47.9929
47.9412
47.8896
47.8384
47.7875
47.7368
47.6865
47.6365
47.5868
47.5375
47.4886
47.44
47.3917
47.3439
47.2965
47.2495
47.2029
47.1568
47.111
47.0658
47.021
46.9766
46.9328
46.8894
46.8465
46.8041
46.7622
46.7209
46.68
46.6397
46.5999
46.5607
46.522
46.4838
46.4462
46.4092
46.3727
46.3368
46.3015
46.2667
46.2326
46.199
46.166
46.1336
46.1017
46.0705
46.0399
46.0099
45.9804
45.9516
45.9233
45.8957
45.8687
45.8423
45.8164
45.7912
45.7666
45.7425
45.7191
45.6963
45.6741
45.6524
45.6314
45.6109
45.5911
45.5718
45.5531
45.535
45.5174
45.5005
45.4841
45.4682
45.453
45.4383
45.4241
45.4105
45.3974
45.3849
45.3729
45.3615
45.3505
45.3401
45.3302
45.3208
45.312
45.3036
45.2957
45.2882
45.2813
45.2748
45.2688
45.2633
45.2582
45.2536
45.2494
45.2456
45.2423
45.2393
45.2368
45.2347
45.233
45.2317
45.2307
45.2301
45.2299
45.2301
45.2306
45.2314
45.2326
45.2341
45.236
45.2381
45.2406
45.2433
45.2463
45.2497
45.2533
45.2571
45.2612
45.2656
45.2702
45.2751
45.2801
45.2854
45.2909
45.2966
45.3025
45.3086
45.3149
45.3214
45.328
45.3347
45.3417
45.3487
45.3559
45.3633
45.3707
45.3783
45.386
45.3937
45.4016
45.4095
45.4176
45.4257
45.4338
45.4421
45.4503
45.4587
45.467
45.4754
45.4838
45.4922
45.5007
45.5091
45.5176
45.526
45.5345
45.5429
45.5513
45.5596
45.568
45.5762
45.5845
45.5927
45.6008
45.6089
45.6169
45.6248
45.6326
45.6404
45.6481
45.6557
45.6632
45.6706
45.6779
45.685
45.6921
45.699
45.7059
45.7126
45.7191
45.7256
45.7319
45.738
45.7441
45.7499
45.7557
45.7612
45.7666
45.7719
45.777
45.7819
45.7866
45.7912
45.7956
45.7999
45.8039
45.8078
45.8115
45.815
45.8184
45.8215
45.8245
45.8272
45.8298
45.8322
45.8344
45.8364
45.8382
45.8398
45.8412
45.8424
45.8434
45.8442
45.8448
45.8452
45.8454
51.8571
51.8556
51.8525
51.8482
51.8426
51.8361
51.8284
51.8199
51.8104
51.8001
51.7889
51.7767
51.7637
51.7497
51.7349
51.7191
51.7024
51.6847
51.6662
51.6467
51.6263
51.6051
51.5829
51.5598
51.5359
51.511
51.4853
51.4588
51.4314
51.4031
51.374
51.3441
51.3134
51.2819
51.2496
51.2165
51.1827
51.148
51.1127
51.0766
51.0398
51.0022
50.964
50.9251
50.8856
50.8453
50.8045
50.763
50.7209
50.6781
50.6348
50.591
50.5465
50.5016
50.4561
50.4101
50.3636
50.3166
50.2691
50.2212
50.1729
50.1241
50.0749
50.0254
49.9755
49.9252
49.8746
49.8236
49.7724
49.7208
49.669
49.6169
49.5646
49.5121
49.4593
49.4064
49.3533
49.3
49.2465
49.193
49.1393
49.0856
49.0317
48.9778
48.9239
48.8699
48.8159
48.7619
48.7079
48.654
48.6001
48.5463
48.4925
48.4388
48.3853
48.3319
48.2786
48.2254
48.1724
48.1196
48.067
48.0146
47.9625
47.9105
47.8588
47.8074
47.7562
47.7054
47.6548
47.6045
47.5546
47.505
47.4557
47.4068
47.3583
47.3102
47.2624
47.2151
47.1681
47.1216
47.0755
47.0299
46.9847
46.9399
46.8956
46.8518
46.8085
46.7657
46.7234
46.6816
46.6403
46.5995
46.5592
46.5195
46.4803
46.4416
46.4035
46.366
46.329
46.2926
46.2568
46.2215
46.1868
46.1527
46.1191
46.0862
46.0538
46.022
45.9908
45.9603
45.9303
45.9009
45.8721
45.8439
45.8163
45.7893
45.7629
45.7371
45.712
45.6874
45.6634
45.64
45.6172
45.595
45.5734
45.5524
45.532
45.5121
45.4929
45.4742
45.4562
45.4386
45.4217
45.4053
45.3895
45.3743
45.3596
45.3455
45.3319
45.3189
45.3064
45.2944
45.283
45.2721
45.2617
45.2518
45.2424
45.2336
45.2252
45.2173
45.2099
45.203
45.1965
45.1905
45.185
45.18
45.1753
45.1711
45.1674
45.164
45.1611
45.1586
45.1565
45.1548
45.1535
45.1525
45.152
45.1518
45.1519
45.1524
45.1533
45.1545
45.156
45.1578
45.16
45.1624
45.1652
45.1682
45.1716
45.1751
45.179
45.1831
45.1875
45.1921
45.197
45.202
45.2073
45.2128
45.2185
45.2244
45.2305
45.2368
45.2432
45.2498
45.2566
45.2635
45.2706
45.2778
45.2851
45.2926
45.3001
45.3078
45.3156
45.3234
45.3314
45.3394
45.3475
45.3556
45.3638
45.3721
45.3804
45.3888
45.3972
45.4056
45.414
45.4224
45.4309
45.4393
45.4477
45.4562
45.4646
45.473
45.4813
45.4896
45.4979
45.5061
45.5143
45.5224
45.5305
45.5385
45.5464
45.5542
45.562
45.5697
45.5773
45.5847
45.5921
45.5994
45.6066
45.6136
45.6206
45.6274
45.6341
45.6407
45.6471
45.6534
45.6595
45.6655
45.6714
45.6771
45.6827
45.6881
45.6933
45.6984
45.7033
45.7081
45.7127
45.7171
45.7213
45.7254
45.7292
45.7329
45.7364
45.7398
45.7429
45.7459
45.7486
45.7512
45.7536
45.7558
45.7578
45.7596
45.7612
45.7626
45.7638
45.7648
45.7656
45.7662
45.7666
45.7668
51.8256
51.8241
51.8211
51.8169
51.8113
51.8048
51.7972
51.7887
51.7793
51.7689
51.7577
51.7455
51.7324
51.7184
51.7035
51.6877
51.671
51.6533
51.6347
51.6152
51.5948
51.5735
51.5513
51.5282
51.5043
51.4794
51.4537
51.4272
51.3997
51.3715
51.3424
51.3125
51.2817
51.2502
51.2179
51.1848
51.151
51.1163
51.081
51.0449
51.0081
50.9705
50.9323
50.8934
50.8539
50.8136
50.7728
50.7313
50.6892
50.6464
50.6031
50.5593
50.5149
50.4699
50.4244
50.3784
50.3319
50.2849
50.2374
50.1895
50.1412
50.0924
50.0433
49.9937
49.9438
49.8935
49.8429
49.792
49.7407
49.6892
49.6374
49.5853
49.533
49.4805
49.4277
49.3748
49.3217
49.2684
49.215
49.1614
49.1078
49.054
49.0002
48.9463
48.8924
48.8384
48.7844
48.7304
48.6765
48.6225
48.5686
48.5148
48.4611
48.4074
48.3538
48.3004
48.2471
48.194
48.141
48.0882
48.0356
47.9832
47.9311
47.8791
47.8275
47.776
47.7249
47.674
47.6235
47.5732
47.5233
47.4737
47.4245
47.3756
47.3271
47.2789
47.2312
47.1838
47.1369
47.0904
47.0443
46.9987
46.9535
46.9088
46.8645
46.8207
46.7774
46.7346
46.6923
46.6505
46.6092
46.5684
46.5282
46.4884
46.4493
46.4106
46.3726
46.335
46.2981
46.2616
46.2258
46.1905
46.1559
46.1217
46.0882
46.0553
46.0229
45.9912
45.96
45.9294
45.8995
45.8701
45.8413
45.8131
45.7855
45.7586
45.7322
45.7064
45.6813
45.6567
45.6327
45.6093
45.5866
45.5644
45.5428
45.5218
45.5014
45.4816
45.4623
45.4437
45.4256
45.4081
45.3912
45.3748
45.359
45.3438
45.3291
45.315
45.3015
45.2884
45.276
45.264
45.2526
45.2417
45.2313
45.2214
45.2121
45.2032
45.1949
45.187
45.1796
45.1727
45.1663
45.1603
45.1548
45.1497
45.1451
45.1409
45.1372
45.1339
45.131
45.1285
45.1264
45.1247
45.1234
45.1224
45.1219
45.1217
45.1219
45.1224
45.1233
45.1244
45.126
45.1278
45.13
45.1324
45.1352
45.1383
45.1416
45.1452
45.1491
45.1532
45.1576
45.1622
45.167
45.1721
45.1774
45.1829
45.1886
45.1945
45.2006
45.2069
45.2134
45.22
45.2268
45.2337
45.2408
45.248
45.2553
45.2628
45.2703
45.278
45.2858
45.2936
45.3016
45.3096
45.3177
45.3259
45.3341
45.3424
45.3507
45.359
45.3674
45.3758
45.3843
45.3927
45.4012
45.4096
45.4181
45.4265
45.4349
45.4433
45.4516
45.46
45.4682
45.4765
45.4847
45.4928
45.5008
45.5088
45.5168
45.5246
45.5324
45.54
45.5476
45.5551
45.5625
45.5698
45.577
45.584
45.591
45.5978
45.6045
45.6111
45.6175
45.6238
45.6299
45.636
45.6418
45.6475
45.6531
45.6585
45.6637
45.6688
45.6738
45.6785
45.6831
45.6875
45.6917
45.6958
45.6997
45.7034
45.7069
45.7102
45.7134
45.7163
45.7191
45.7216
45.724
45.7262
45.7282
45.73
45.7316
45.733
45.7342
45.7352
45.736
45.7366
45.737
45.7372
51.7526
51.7511
51.7479
51.7434
51.7376
51.7307
51.7227
51.7139
51.7041
51.6935
51.682
51.6696
51.6563
51.6422
51.6272
51.6112
51.5944
51.5767
51.558
51.5385
51.5181
51.4967
51.4745
51.4514
51.4274
51.4026
51.3769
51.3503
51.3229
51.2946
51.2656
51.2357
51.205
51.1734
51.1411
51.1081
51.0742
51.0396
51.0043
50.9682
50.9314
50.8939
50.8558
50.8169
50.7773
50.7371
50.6963
50.6548
50.6128
50.5701
50.5268
50.483
50.4386
50.3937
50.3482
50.3022
50.2558
50.2088
50.1614
50.1136
50.0653
50.0165
49.9674
49.9179
49.868
49.8178
49.7672
49.7163
49.6651
49.6136
49.5619
49.5099
49.4576
49.4051
49.3524
49.2995
49.2464
49.1932
49.1398
49.0863
49.0327
48.979
48.9253
48.8714
48.8175
48.7636
48.7097
48.6557
48.6018
48.5479
48.4941
48.4403
48.3866
48.333
48.2795
48.2261
48.1729
48.1198
48.0669
48.0141
47.9616
47.9092
47.8571
47.8052
47.7536
47.7022
47.6511
47.6003
47.5498
47.4996
47.4497
47.4002
47.351
47.3022
47.2537
47.2056
47.1579
47.1106
47.0637
47.0173
46.9712
46.9256
46.8805
46.8358
46.7916
46.7479
46.7046
46.6618
46.6196
46.5778
46.5366
46.4958
46.4556
46.4159
46.3768
46.3382
46.3002
46.2627
46.2258
46.1894
46.1536
46.1184
46.0837
46.0497
46.0162
45.9833
45.951
45.9192
45.8881
45.8576
45.8276
45.7983
45.7696
45.7414
45.7139
45.6869
45.6606
45.6349
45.6097
45.5852
45.5612
45.5379
45.5152
45.493
45.4714
45.4505
45.4301
45.4103
45.3911
45.3725
45.3544
45.337
45.3201
45.3038
45.288
45.2728
45.2581
45.2441
45.2305
45.2175
45.205
45.1931
45.1817
45.1708
45.1605
45.1506
45.1413
45.1325
45.1241
45.1163
45.1089
45.102
45.0956
45.0897
45.0842
45.0791
45.0745
45.0704
45.0666
45.0633
45.0604
45.058
45.0559
45.0542
45.0529
45.052
45.0514
45.0513
45.0514
45.052
45.0528
45.054
45.0556
45.0574
45.0596
45.0621
45.0648
45.0679
45.0712
45.0749
45.0787
45.0829
45.0872
45.0919
45.0967
45.1018
45.1071
45.1126
45.1184
45.1243
45.1304
45.1367
45.1431
45.1497
45.1565
45.1634
45.1705
45.1777
45.185
45.1925
45.2001
45.2077
45.2155
45.2234
45.2313
45.2394
45.2475
45.2556
45.2638
45.2721
45.2804
45.2888
45.2972
45.3056
45.314
45.3225
45.3309
45.3393
45.3478
45.3562
45.3646
45.373
45.3814
45.3897
45.398
45.4062
45.4144
45.4225
45.4305
45.4385
45.4465
45.4543
45.4621
45.4697
45.4773
45.4848
45.4922
45.4995
45.5066
45.5137
45.5206
45.5275
45.5342
45.5407
45.5471
45.5534
45.5596
45.5656
45.5715
45.5772
45.5827
45.5881
45.5934
45.5985
45.6034
45.6081
45.6127
45.6171
45.6214
45.6254
45.6293
45.633
45.6365
45.6398
45.643
45.6459
45.6487
45.6513
45.6536
45.6558
45.6578
45.6596
45.6612
45.6626
45.6638
45.6648
45.6656
45.6662
45.6666
45.6668
51.7127
51.7112
51.7081
51.7038
51.698
51.6912
51.6834
51.6746
51.6648
51.6542
51.6427
51.6303
51.617
51.6028
51.5878
51.5718
51.5549
51.5371
51.5185
51.4989
51.4784
51.4571
51.4348
51.4117
51.3877
51.3628
51.3371
51.3105
51.2831
51.2548
51.2257
51.1958
51.1651
51.1335
51.1012
51.0682
51.0343
50.9997
50.9643
50.9283
50.8915
50.854
50.8158
50.7769
50.7374
50.6972
50.6563
50.6148
50.5728
50.5301
50.4868
50.443
50.3986
50.3537
50.3082
50.2622
50.2158
50.1688
50.1214
50.0735
50.0252
49.9765
49.9274
49.8779
49.828
49.7778
49.7272
49.6763
49.6251
49.5736
49.5219
49.4698
49.4176
49.3651
49.3124
49.2595
49.2064
49.1532
49.0998
49.0463
48.9927
48.939
48.8852
48.8314
48.7775
48.7236
48.6697
48.6157
48.5618
48.5079
48.4541
48.4003
48.3466
48.293
48.2395
48.1862
48.1329
48.0798
48.0269
47.9742
47.9217
47.8693
47.8172
47.7653
47.7137
47.6623
47.6113
47.5605
47.5099
47.4598
47.4099
47.3604
47.3112
47.2623
47.2139
47.1658
47.1181
47.0708
47.024
46.9775
46.9315
46.8859
46.8408
46.7961
46.7519
46.7082
46.6649
46.6222
46.5799
46.5381
46.4969
46.4562
46.416
46.3763
46.3372
46.2986
46.2606
46.2231
46.1862
46.1499
46.1141
46.0789
46.0443
46.0102
45.9767
45.9438
45.9115
45.8798
45.8487
45.8182
45.7883
45.759
45.7302
45.7021
45.6746
45.6477
45.6213
45.5956
45.5705
45.546
45.522
45.4987
45.476
45.4539
45.4323
45.4114
45.391
45.3712
45.352
45.3334
45.3154
45.298
45.2811
45.2648
45.249
45.2338
45.2192
45.2051
45.1916
45.1786
45.1662
45.1543
45.1429
45.132
45.1217
45.1119
45.1026
45.0937
45.0854
45.0776
45.0702
45.0634
45.057
45.051
45.0456
45.0405
45.0359
45.0318
45.0281
45.0248
45.0219
45.0195
45.0174
45.0157
45.0144
45.0135
45.013
45.0129
45.0131
45.0136
45.0145
45.0157
45.0173
45.0191
45.0213
45.0238
45.0266
45.0297
45.033
45.0366
45.0405
45.0447
45.0491
45.0537
45.0586
45.0637
45.069
45.0745
45.0803
45.0862
45.0923
45.0986
45.1051
45.1117
45.1185
45.1254
45.1325
45.1397
45.1471
45.1545
45.1621
45.1698
45.1776
45.1855
45.1934
45.2015
45.2096
45.2177
45.226
45.2343
45.2426
45.2509
45.2593
45.2678
45.2762
45.2846
45.2931
45.3016
45.31
45.3184
45.3268
45.3352
45.3436
45.3519
45.3602
45.3685
45.3766
45.3848
45.3928
45.4008
45.4088
45.4166
45.4244
45.4321
45.4396
45.4471
45.4545
45.4618
45.469
45.4761
45.483
45.4898
45.4965
45.5031
45.5095
45.5158
45.522
45.528
45.5339
45.5396
45.5451
45.5505
45.5558
45.5609
45.5658
45.5705
45.5751
45.5795
45.5838
45.5878
45.5917
45.5954
45.5989
45.6023
45.6054
45.6084
45.6111
45.6137
45.6161
45.6183
45.6203
45.622
45.6236
45.625
45.6262
45.6273
45.6281
45.6287
45.6291
45.6293
51.6449
51.6434
51.6402
51.6358
51.63
51.623
51.615
51.6061
51.5962
51.5854
51.5737
51.5612
51.5478
51.5335
51.5183
51.5022
51.4853
51.4674
51.4487
51.4291
51.4085
51.3871
51.3649
51.3417
51.3177
51.2928
51.267
51.2404
51.213
51.1847
51.1556
51.1257
51.095
51.0635
51.0312
50.9981
50.9642
50.9296
50.8943
50.8582
50.8214
50.7839
50.7458
50.7069
50.6674
50.6272
50.5863
50.5449
50.5028
50.4602
50.4169
50.3731
50.3287
50.2838
50.2384
50.1924
50.146
50.099
50.0516
50.0038
49.9555
49.9068
49.8577
49.8082
49.7584
49.7082
49.6576
49.6068
49.5556
49.5041
49.4524
49.4004
49.3481
49.2957
49.243
49.1902
49.1371
49.0839
49.0306
48.9771
48.9235
48.8699
48.8161
48.7623
48.7084
48.6545
48.6006
48.5467
48.4929
48.439
48.3852
48.3314
48.2778
48.2242
48.1707
48.1174
48.0642
48.0112
47.9583
47.9056
47.8531
47.8008
47.7487
47.6968
47.6452
47.5939
47.5428
47.4921
47.4416
47.3914
47.3416
47.2921
47.2429
47.1941
47.1457
47.0977
47.05
47.0028
46.9559
46.9095
46.8635
46.818
46.7729
46.7282
46.6841
46.6404
46.5971
46.5544
46.5122
46.4705
46.4293
46.3886
46.3484
46.3088
46.2697
46.2312
46.1932
46.1557
46.1188
46.0825
46.0468
46.0116
45.977
45.943
45.9095
45.8767
45.8444
45.8127
45.7817
45.7512
45.7213
45.692
45.6633
45.6352
45.6077
45.5808
45.5545
45.5288
45.5037
45.4792
45.4553
45.432
45.4093
45.3872
45.3657
45.3448
45.3245
45.3047
45.2856
45.267
45.249
45.2316
45.2147
45.1984
45.1827
45.1675
45.1529
45.1389
45.1254
45.1124
45.1
45.0881
45.0768
45.0659
45.0556
45.0458
45.0365
45.0277
45.0194
45.0116
45.0043
44.9974
44.9911
44.9851
44.9797
44.9747
44.9701
44.966
44.9623
44.959
44.9562
44.9537
44.9517
44.95
44.9488
44.9479
44.9474
44.9472
44.9474
44.948
44.9489
44.9501
44.9517
44.9536
44.9558
44.9583
44.9611
44.9642
44.9675
44.9712
44.9751
44.9792
44.9836
44.9883
44.9932
44.9983
45.0036
45.0092
45.0149
45.0208
45.027
45.0333
45.0397
45.0464
45.0532
45.0601
45.0672
45.0744
45.0818
45.0893
45.0969
45.1046
45.1123
45.1202
45.1282
45.1362
45.1444
45.1525
45.1608
45.1691
45.1774
45.1858
45.1942
45.2026
45.211
45.2195
45.2279
45.2364
45.2448
45.2533
45.2617
45.2701
45.2785
45.2868
45.2951
45.3033
45.3115
45.3196
45.3277
45.3357
45.3436
45.3515
45.3593
45.3669
45.3745
45.382
45.3894
45.3967
45.4039
45.4109
45.4179
45.4247
45.4314
45.438
45.4444
45.4507
45.4569
45.4629
45.4688
45.4745
45.48
45.4854
45.4907
45.4958
45.5007
45.5054
45.51
45.5144
45.5187
45.5227
45.5266
45.5303
45.5338
45.5372
45.5403
45.5433
45.546
45.5486
45.551
45.5532
45.5552
45.557
45.5585
45.56
45.5612
45.5622
45.563
45.5636
45.564
45.5642
51.5995
51.598
51.595
51.5906
51.5849
51.5781
51.5701
51.5612
51.5514
51.5406
51.529
51.5164
51.503
51.4887
51.4735
51.4574
51.4404
51.4225
51.4037
51.384
51.3635
51.342
51.3197
51.2965
51.2725
51.2476
51.2218
51.1951
51.1677
51.1394
51.1103
51.0803
51.0496
51.018
50.9857
50.9526
50.9187
50.8841
50.8488
50.8127
50.7759
50.7384
50.7002
50.6613
50.6218
50.5816
50.5407
50.4993
50.4572
50.4145
50.3713
50.3274
50.283
50.2381
50.1927
50.1467
50.1003
50.0533
50.0059
49.9581
49.9098
49.8611
49.812
49.7625
49.7126
49.6624
49.6118
49.561
49.5098
49.4583
49.4066
49.3546
49.3023
49.2498
49.1972
49.1443
49.0913
49.0381
48.9847
48.9312
48.8777
48.824
48.7702
48.7164
48.6625
48.6087
48.5547
48.5008
48.447
48.3931
48.3393
48.2855
48.2319
48.1783
48.1248
48.0715
48.0183
47.9652
47.9124
47.8597
47.8071
47.7548
47.7028
47.6509
47.5993
47.548
47.4969
47.4462
47.3957
47.3455
47.2957
47.2462
47.1971
47.1483
47.0998
47.0518
47.0042
46.9569
46.9101
46.8637
46.8177
46.7721
46.727
46.6824
46.6382
46.5946
46.5513
46.5086
46.4664
46.4247
46.3835
46.3428
46.3027
46.2631
46.224
46.1855
46.1475
46.11
46.0732
46.0369
46.0011
45.966
45.9314
45.8974
45.8639
45.8311
45.7989
45.7672
45.7361
45.7057
45.6758
45.6465
45.6178
45.5897
45.5623
45.5354
45.5091
45.4834
45.4584
45.4339
45.41
45.3867
45.364
45.342
45.3205
45.2996
45.2793
45.2595
45.2404
45.2218
45.2039
45.1865
45.1696
45.1534
45.1377
45.1225
45.1079
45.0939
45.0804
45.0675
45.0551
45.0432
45.0319
45.0211
45.0108
45.001
44.9917
44.983
44.9747
44.9669
44.9596
44.9528
44.9464
44.9405
44.9351
44.9301
44.9255
44.9214
44.9178
44.9145
44.9117
44.9093
44.9072
44.9056
44.9044
44.9035
44.903
44.9029
44.9031
44.9037
44.9046
44.9059
44.9075
44.9094
44.9116
44.9141
44.9169
44.92
44.9234
44.9271
44.931
44.9352
44.9396
44.9443
44.9492
44.9543
44.9596
44.9652
44.971
44.9769
44.9831
44.9894
44.9959
45.0025
45.0094
45.0163
45.0234
45.0307
45.038
45.0455
45.0531
45.0608
45.0686
45.0765
45.0845
45.0926
45.1007
45.1089
45.1172
45.1255
45.1338
45.1422
45.1506
45.159
45.1675
45.1759
45.1844
45.1929
45.2013
45.2098
45.2182
45.2266
45.235
45.2434
45.2516
45.2599
45.2681
45.2762
45.2843
45.2923
45.3003
45.3081
45.3159
45.3236
45.3312
45.3387
45.3461
45.3534
45.3606
45.3676
45.3746
45.3814
45.3881
45.3947
45.4012
45.4075
45.4136
45.4196
45.4255
45.4312
45.4368
45.4422
45.4475
45.4526
45.4575
45.4622
45.4668
45.4712
45.4755
45.4795
45.4834
45.4871
45.4907
45.494
45.4971
45.5001
45.5029
45.5054
45.5078
45.51
45.512
45.5138
45.5154
45.5168
45.518
45.519
45.5198
45.5204
45.5208
45.521
51.5353
51.5338
51.5307
51.5264
51.5207
51.5138
51.5058
51.4969
51.487
51.4762
51.4644
51.4518
51.4382
51.4238
51.4085
51.3924
51.3753
51.3573
51.3385
51.3188
51.2982
51.2767
51.2544
51.2311
51.207
51.1821
51.1563
51.1296
51.1021
51.0738
51.0447
51.0147
50.984
50.9524
50.9201
50.887
50.8531
50.8185
50.7831
50.747
50.7102
50.6727
50.6345
50.5956
50.5561
50.5159
50.475
50.4336
50.3915
50.3488
50.3056
50.2617
50.2174
50.1724
50.127
50.081
50.0346
49.9877
49.9403
49.8924
49.8441
49.7954
49.7463
49.6968
49.647
49.5968
49.5462
49.4954
49.4442
49.3927
49.341
49.289
49.2368
49.1843
49.1316
49.0788
49.0257
48.9725
48.9192
48.8657
48.8122
48.7585
48.7048
48.651
48.5971
48.5432
48.4893
48.4354
48.3816
48.3277
48.2739
48.2202
48.1665
48.113
48.0595
48.0062
47.953
47.9
47.8471
47.7944
47.7419
47.6896
47.6376
47.5857
47.5342
47.4828
47.4318
47.3811
47.3306
47.2805
47.2306
47.1812
47.132
47.0833
47.0349
46.9868
46.9392
46.892
46.8452
46.7988
46.7528
46.7073
46.6622
46.6176
46.5735
46.5298
46.4866
46.4439
46.4017
46.36
46.3188
46.2782
46.2381
46.1985
46.1594
46.1209
46.0829
46.0455
46.0087
45.9724
45.9367
45.9016
45.867
45.833
45.7996
45.7668
45.7346
45.7029
45.6719
45.6414
45.6116
45.5823
45.5537
45.5256
45.4982
45.4713
45.4451
45.4194
45.3944
45.3699
45.3461
45.3228
45.3002
45.2781
45.2566
45.2358
45.2155
45.1958
45.1767
45.1581
45.1402
45.1228
45.106
45.0898
45.0741
45.059
45.0444
45.0304
45.017
45.0041
44.9917
44.9798
44.9685
44.9577
44.9475
44.9377
44.9285
44.9197
44.9115
44.9037
44.8964
44.8896
44.8833
44.8774
44.872
44.867
44.8625
44.8584
44.8548
44.8516
44.8488
44.8464
44.8444
44.8427
44.8415
44.8407
44.8402
44.8401
44.8404
44.841
44.8419
44.8432
44.8448
44.8467
44.849
44.8515
44.8543
44.8575
44.8609
44.8645
44.8685
44.8727
44.8771
44.8818
44.8867
44.8919
44.8972
44.9028
44.9086
44.9146
44.9207
44.9271
44.9336
44.9402
44.9471
44.9541
44.9612
44.9684
44.9758
44.9833
44.9909
44.9987
45.0065
45.0144
45.0224
45.0304
45.0386
45.0468
45.0551
45.0634
45.0717
45.0801
45.0885
45.097
45.1054
45.1139
45.1224
45.1309
45.1394
45.1478
45.1563
45.1647
45.1731
45.1814
45.1897
45.198
45.2062
45.2143
45.2224
45.2304
45.2384
45.2462
45.254
45.2617
45.2693
45.2768
45.2842
45.2915
45.2987
45.3058
45.3128
45.3196
45.3263
45.3329
45.3393
45.3456
45.3518
45.3578
45.3637
45.3694
45.375
45.3804
45.3857
45.3908
45.3957
45.4005
45.405
45.4095
45.4137
45.4178
45.4217
45.4254
45.4289
45.4322
45.4354
45.4383
45.4411
45.4437
45.4461
45.4482
45.4502
45.452
45.4536
45.455
45.4562
45.4572
45.4581
45.4587
45.4591
45.4593
51.4862
51.4847
51.4818
51.4775
51.4718
51.4651
51.4572
51.4483
51.4385
51.4277
51.416
51.4033
51.3898
51.3754
51.36
51.3438
51.3267
51.3087
51.2899
51.2701
51.2495
51.2279
51.2055
51.1823
51.1582
51.1332
51.1073
51.0806
51.0531
51.0248
50.9956
50.9656
50.9348
50.9033
50.8709
50.8378
50.8039
50.7692
50.7338
50.6977
50.6609
50.6234
50.5851
50.5462
50.5067
50.4665
50.4256
50.3841
50.342
50.2993
50.2561
50.2122
50.1678
50.1229
50.0774
50.0314
49.985
49.938
49.8906
49.8427
49.7944
49.7457
49.6966
49.6471
49.5972
49.547
49.4964
49.4456
49.3944
49.3429
49.2911
49.2391
49.1869
49.1344
49.0817
49.0288
48.9758
48.9226
48.8692
48.8158
48.7622
48.7085
48.6547
48.6009
48.5471
48.4932
48.4393
48.3853
48.3315
48.2776
48.2238
48.1701
48.1164
48.0628
48.0094
47.956
47.9028
47.8498
47.7969
47.7442
47.6917
47.6394
47.5873
47.5355
47.4839
47.4326
47.3816
47.3308
47.2803
47.2302
47.1804
47.1309
47.0818
47.033
46.9846
46.9366
46.8889
46.8417
46.7949
46.7485
46.7025
46.657
46.6119
46.5673
46.5232
46.4795
46.4364
46.3937
46.3515
46.3098
46.2686
46.228
46.1879
46.1483
46.1092
46.0707
46.0328
45.9954
45.9585
45.9223
45.8866
45.8514
45.8169
45.7829
45.7495
45.7167
45.6845
45.6529
45.6219
45.5914
45.5616
45.5324
45.5037
45.4757
45.4482
45.4214
45.3952
45.3695
45.3445
45.3201
45.2963
45.273
45.2504
45.2283
45.2069
45.186
45.1658
45.1461
45.127
45.1085
45.0906
45.0732
45.0564
45.0402
45.0246
45.0095
44.9949
44.981
44.9675
44.9547
44.9423
44.9305
44.9192
44.9084
44.8982
44.8885
44.8792
44.8705
44.8623
44.8546
44.8473
44.8405
44.8342
44.8284
44.823
44.818
44.8136
44.8095
44.8059
44.8027
44.7999
44.7975
44.7955
44.794
44.7928
44.7919
44.7915
44.7914
44.7917
44.7923
44.7933
44.7946
44.7962
44.7982
44.8005
44.803
44.8059
44.809
44.8125
44.8162
44.8201
44.8243
44.8288
44.8335
44.8385
44.8436
44.849
44.8546
44.8604
44.8664
44.8726
44.8789
44.8855
44.8922
44.899
44.906
44.9132
44.9204
44.9278
44.9354
44.943
44.9507
44.9586
44.9665
44.9745
44.9826
44.9908
44.999
45.0073
45.0156
45.024
45.0324
45.0408
45.0493
45.0578
45.0663
45.0748
45.0833
45.0918
45.1002
45.1087
45.1171
45.1255
45.1339
45.1422
45.1505
45.1587
45.1668
45.1749
45.183
45.1909
45.1988
45.2066
45.2143
45.2219
45.2294
45.2369
45.2442
45.2514
45.2585
45.2654
45.2723
45.279
45.2856
45.292
45.2984
45.3045
45.3106
45.3164
45.3222
45.3278
45.3332
45.3384
45.3435
45.3485
45.3532
45.3578
45.3623
45.3665
45.3706
45.3745
45.3782
45.3817
45.385
45.3882
45.3912
45.3939
45.3965
45.3989
45.4011
45.4031
45.4049
45.4065
45.4079
45.4091
45.4101
45.4109
45.4115
45.4119
45.4121
51.4244
51.423
51.4201
51.4158
51.4102
51.4035
51.3956
51.3867
51.3769
51.366
51.3543
51.3416
51.328
51.3135
51.2981
51.2819
51.2647
51.2467
51.2277
51.2079
51.1872
51.1657
51.1432
51.1199
51.0958
51.0707
51.0449
51.0181
50.9906
50.9622
50.933
50.903
50.8722
50.8406
50.8082
50.7751
50.7411
50.7065
50.6711
50.6349
50.5981
50.5606
50.5223
50.4834
50.4438
50.4036
50.3627
50.3212
50.2791
50.2364
50.1931
50.1493
50.1048
50.0599
50.0144
49.9684
49.9219
49.875
49.8276
49.7797
49.7314
49.6827
49.6335
49.584
49.5341
49.4839
49.4333
49.3824
49.3312
49.2797
49.228
49.176
49.1237
49.0712
49.0185
48.9657
48.9126
48.8594
48.806
48.7526
48.699
48.6453
48.5915
48.5377
48.4838
48.4299
48.376
48.3221
48.2682
48.2144
48.1605
48.1068
48.0531
47.9996
47.9461
47.8928
47.8396
47.7865
47.7336
47.6809
47.6284
47.5762
47.5241
47.4723
47.4207
47.3694
47.3183
47.2676
47.2171
47.167
47.1172
47.0677
47.0185
46.9698
46.9214
46.8734
46.8257
46.7785
46.7317
46.6853
46.6394
46.5939
46.5488
46.5042
46.4601
46.4164
46.3733
46.3306
46.2884
46.2467
46.2056
46.1649
46.1248
46.0853
46.0462
46.0077
45.9698
45.9324
45.8956
45.8594
45.8237
45.7886
45.754
45.7201
45.6867
45.6539
45.6217
45.5901
45.5591
45.5287
45.4989
45.4697
45.4411
45.413
45.3856
45.3588
45.3326
45.307
45.282
45.2576
45.2338
45.2106
45.188
45.1659
45.1445
45.1237