/*--------------------------------*- C++ -*----------------------------------*\
| =========                 |                                                 |
| \\      /  F ield         | OpenFOAM: The Open Source CFD Toolbox           |
|  \\    /   O peration     | Version:  2212                                  |
|   \\  /    A nd           | Website:  www.openfoam.com                      |
|    \\/     M anipulation  |                                                 |
\*---------------------------------------------------------------------------*/
FoamFile
{
    version     2.0;
    format      ascii;
    arch        "LSB;label=32;scalar=64";
    class       volScalarField;
    location    "600";
    object      p_rgh;
}
// * * * * * * * * * * * * * * * * * * * * * * * * * * * * * * * * * * * * * //

dimensions      [1 -1 -2 0 0 0 0];

internalField   nonuniform List<scalar> 
204800
(
45.161
45.1525
45.1396
45.1212
45.0966
45.0657
45.0286
44.9854
44.9362
44.8813
44.821
44.7554
44.6849
44.6095
44.5294
44.4447
44.3557
44.2623
44.1646
44.0629
43.9572
43.8476
43.7343
43.6173
43.4967
43.3727
43.2454
43.1148
42.9811
42.8444
42.7048
42.5623
42.4172
42.2696
42.1194
41.9669
41.8122
41.6554
41.4966
41.3358
41.1733
41.0091
40.8434
40.6763
40.5078
40.338
40.1672
39.9954
39.8226
39.6491
39.4749
39.3
39.1247
38.9491
38.7731
38.5969
38.4207
38.2444
38.0683
37.8923
37.7166
37.5413
37.3664
37.1921
37.0184
36.8454
36.6731
36.5017
36.3313
36.1618
35.9935
35.8263
35.6602
35.4955
35.3321
35.1701
35.0096
34.8506
34.6931
34.5373
34.3832
34.2307
34.0801
33.9313
33.7843
33.6392
33.4961
33.3549
33.2158
33.0787
32.9437
32.8108
32.68
32.5513
32.4249
32.3006
32.1786
32.0588
31.9413
31.826
31.713
31.6023
31.4939
31.3879
31.2841
31.1827
31.0836
30.9868
30.8924
30.8003
30.7105
30.623
30.5379
30.455
30.3745
30.2963
30.2204
30.1467
30.0754
30.0063
29.9394
29.8747
29.8123
29.7521
29.694
29.6381
29.5843
29.5327
29.4832
29.4357
29.3904
29.347
29.3057
29.2664
29.229
29.1936
29.1601
29.1286
29.0989
29.071
29.045
29.0208
28.9983
28.9776
28.9586
28.9413
28.9256
28.9116
28.8992
28.8884
28.8791
28.8713
28.8651
28.8603
28.8569
28.855
28.8544
28.8552
28.8573
28.8608
28.8655
28.8714
28.8785
28.8868
28.8963
28.9069
28.9187
28.9315
28.9453
28.9602
28.976
28.9929
29.0106
29.0293
29.0489
29.0693
29.0906
29.1127
29.1356
29.1592
29.1836
29.2087
29.2345
29.261
29.2881
29.3158
29.3441
29.3731
29.4025
29.4325
29.463
29.494
29.5254
29.5573
29.5897
29.6224
29.6555
29.689
29.7228
29.757
29.7914
29.8262
29.8612
29.8965
29.932
29.9677
30.0036
30.0397
30.076
30.1124
30.149
30.1857
30.2224
30.2593
30.2963
30.3333
30.3703
30.4074
30.4445
30.4816
30.5187
30.5557
30.5928
30.6297
30.6666
30.7035
30.7402
30.7769
30.8134
30.8499
30.8862
30.9223
30.9583
30.9942
31.0298
31.0653
31.1006
31.1357
31.1706
31.2052
31.2396
31.2738
31.3078
31.3414
31.3749
31.408
31.4409
31.4735
31.5057
31.5377
31.5694
31.6008
31.6318
31.6625
31.6929
31.7229
31.7526
31.7819
31.8109
31.8395
31.8678
31.8956
31.9231
31.9502
31.9769
32.0032
32.0291
32.0546
32.0797
32.1043
32.1286
32.1524
32.1758
32.1988
32.2213
32.2434
32.265
32.2862
32.307
32.3273
32.3472
32.3665
32.3855
32.4039
32.4219
32.4394
32.4565
32.4731
32.4892
32.5048
32.5199
32.5346
32.5487
32.5624
32.5756
32.5883
32.6005
32.6122
32.6234
32.6341
32.6443
32.654
32.6632
32.6719
32.6801
32.6878
32.6949
32.7016
32.7078
32.7134
32.7186
32.7232
32.7273
32.7309
32.734
32.7366
32.7386
32.7402
32.7412
32.7417
45.0993
45.091
45.0755
45.0533
45.0247
44.99
44.9497
44.9038
44.8527
44.7964
44.7351
44.6689
44.598
44.5223
44.4421
44.3575
44.2684
44.1751
44.0775
43.9759
43.8704
43.7609
43.6477
43.5309
43.4105
43.2867
43.1596
43.0292
42.8957
42.7592
42.6198
42.4776
42.3327
42.1853
42.0354
41.8832
41.7287
41.5721
41.4136
41.2531
41.0909
40.927
40.7616
40.5947
40.4265
40.2571
40.0865
39.915
39.7425
39.5693
39.3954
39.2209
39.0459
38.8705
38.6949
38.519
38.3431
38.1671
37.9913
37.8157
37.6403
37.4653
37.2907
37.1167
36.9433
36.7706
36.5987
36.4276
36.2575
36.0883
35.9203
35.7534
35.5877
35.4232
35.2601
35.0984
34.9382
34.7795
34.6223
34.4668
34.313
34.1608
34.0105
33.8619
33.7152
33.5704
33.4276
33.2867
33.1478
33.011
32.8762
32.7436
32.613
32.4846
32.3584
32.2344
32.1126
31.9931
31.8758
31.7607
31.648
31.5375
31.4293
31.3235
31.2199
31.1187
31.0198
30.9232
30.829
30.737
30.6474
30.5602
30.4752
30.3925
30.3122
30.2341
30.1584
30.0849
30.0137
29.9447
29.878
29.8135
29.7512
29.691
29.6331
29.5773
29.5237
29.4722
29.4228
29.3754
29.3302
29.2869
29.2457
29.2065
29.1692
29.1339
29.1005
29.069
29.0394
29.0116
28.9856
28.9615
28.9391
28.9184
28.8995
28.8822
28.8666
28.8526
28.8403
28.8295
28.8203
28.8125
28.8063
28.8015
28.7982
28.7963
28.7958
28.7966
28.7987
28.8021
28.8068
28.8128
28.8199
28.8282
28.8377
28.8483
28.8601
28.8728
28.8867
28.9015
28.9174
28.9342
28.9519
28.9706
28.9902
29.0106
29.0318
29.0539
29.0768
29.1004
29.1247
29.1498
29.1756
29.202
29.2291
29.2568
29.2851
29.3139
29.3433
29.3733
29.4037
29.4347
29.4661
29.4979
29.5302
29.5629
29.5959
29.6294
29.6631
29.6972
29.7317
29.7663
29.8013
29.8365
29.872
29.9076
29.9435
29.9796
30.0158
30.0521
30.0887
30.1253
30.162
30.1988
30.2357
30.2726
30.3096
30.3466
30.3837
30.4207
30.4577
30.4947
30.5317
30.5686
30.6055
30.6422
30.6789
30.7155
30.752
30.7884
30.8246
30.8607
30.8966
30.9324
30.968
31.0034
31.0387
31.0737
31.1085
31.1431
31.1775
31.2116
31.2455
31.2791
31.3125
31.3455
31.3784
31.4109
31.4431
31.475
31.5067
31.538
31.569
31.5996
31.6299
31.6599
31.6896
31.7188
31.7478
31.7763
31.8045
31.8323
31.8597
31.8868
31.9134
31.9397
31.9655
31.991
32.016
32.0406
32.0649
32.0886
32.112
32.1349
32.1574
32.1795
32.2011
32.2222
32.243
32.2632
32.283
32.3024
32.3213
32.3397
32.3577
32.3752
32.3922
32.4087
32.4248
32.4404
32.4555
32.4701
32.4843
32.4979
32.5111
32.5237
32.5359
32.5476
32.5588
32.5695
32.5796
32.5893
32.5985
32.6072
32.6154
32.623
32.6302
32.6369
32.643
32.6486
32.6538
32.6584
32.6625
32.6661
32.6692
32.6717
32.6738
32.6753
32.6764
32.6769
45.0828
45.0751
45.06
45.038
45.0095
44.9749
44.9346
44.8887
44.8375
44.7812
44.7198
44.6535
44.5824
44.5067
44.4264
44.3416
44.2524
44.159
44.0614
43.9597
43.854
43.7445
43.6313
43.5143
43.3939
43.27
43.1428
43.0124
42.8788
42.7423
42.6028
42.4606
42.3157
42.1682
42.0183
41.866
41.7115
41.5549
41.3963
41.2358
41.0735
40.9096
40.7442
40.5773
40.409
40.2396
40.069
39.8975
39.725
39.5518
39.3778
39.2033
39.0283
38.8529
38.6773
38.5014
38.3255
38.1495
37.9737
37.798
37.6227
37.4477
37.2731
37.0991
36.9257
36.753
36.5811
36.41
36.2399
36.0708
35.9028
35.7358
35.5702
35.4057
35.2427
35.081
34.9208
34.7621
34.605
34.4495
34.2956
34.1435
33.9932
33.8447
33.698
33.5533
33.4104
33.2696
33.1307
32.9939
32.8592
32.7266
32.5961
32.4677
32.3416
32.2176
32.0958
31.9763
31.8591
31.7441
31.6313
31.5209
31.4128
31.307
31.2035
31.1023
31.0034
30.9069
30.8127
30.7208
30.6312
30.544
30.4591
30.3765
30.2962
30.2182
30.1425
30.069
29.9978
29.9289
29.8622
29.7978
29.7355
29.6754
29.6176
29.5618
29.5082
29.4568
29.4074
29.3601
29.3149
29.2717
29.2305
29.1913
29.1541
29.1188
29.0855
29.054
29.0245
28.9967
28.9708
28.9467
28.9243
28.9037
28.8848
28.8676
28.852
28.8381
28.8258
28.815
28.8058
28.7981
28.792
28.7872
28.7839
28.7821
28.7816
28.7824
28.7846
28.788
28.7928
28.7987
28.8059
28.8143
28.8238
28.8344
28.8462
28.859
28.8729
28.8877
28.9036
28.9205
28.9382
28.9569
28.9765
28.997
29.0182
29.0403
29.0632
29.0869
29.1112
29.1363
29.1621
29.1886
29.2157
29.2434
29.2717
29.3006
29.33
29.36
29.3904
29.4214
29.4528
29.4847
29.517
29.5497
29.5828
29.6162
29.65
29.6841
29.7185
29.7532
29.7882
29.8234
29.8589
29.8946
29.9305
29.9665
30.0028
30.0391
30.0757
30.1123
30.149
30.1858
30.2227
30.2597
30.2967
30.3337
30.3708
30.4078
30.4448
30.4818
30.5188
30.5557
30.5926
30.6294
30.6661
30.7027
30.7392
30.7755
30.8118
30.8479
30.8838
30.9196
30.9552
30.9906
31.0259
31.0609
31.0957
31.1303
31.1647
31.1988
31.2327
31.2663
31.2997
31.3328
31.3656
31.3981
31.4303
31.4623
31.4939
31.5252
31.5562
31.5869
31.6172
31.6472
31.6768
31.7061
31.735
31.7636
31.7917
31.8195
31.847
31.874
31.9007
31.9269
31.9528
31.9782
32.0033
32.0279
32.0521
32.0759
32.0992
32.1222
32.1447
32.1667
32.1883
32.2095
32.2302
32.2505
32.2703
32.2896
32.3085
32.327
32.3449
32.3624
32.3794
32.396
32.412
32.4276
32.4427
32.4574
32.4715
32.4852
32.4983
32.511
32.5232
32.5348
32.546
32.5567
32.5669
32.5766
32.5858
32.5944
32.6026
32.6103
32.6174
32.6241
32.6302
32.6359
32.641
32.6456
32.6497
32.6533
32.6564
32.659
32.661
32.6626
32.6636
32.6641
45.0239
45.0157
44.9995
44.9761
44.9459
44.9096
44.8676
44.8203
44.7679
44.7105
44.6483
44.5813
44.5097
44.4336
44.353
44.268
44.1786
44.085
43.9873
43.8856
43.7799
43.6704
43.5571
43.4402
43.3198
43.196
43.0688
42.9384
42.805
42.6685
42.5291
42.387
42.2421
42.0948
41.9449
41.7928
41.6384
41.4819
41.3235
41.1631
41.001
40.8372
40.6719
40.5052
40.3371
40.1678
39.9974
39.826
39.6538
39.4807
39.3069
39.1326
38.9578
38.7826
38.6071
38.4315
38.2557
38.08
37.9043
37.7289
37.5537
37.3789
37.2046
37.0308
36.8576
36.6851
36.5134
36.3426
36.1727
36.0038
35.8359
35.6693
35.5038
35.3396
35.1767
35.0153
34.8553
34.6968
34.5399
34.3846
34.231
34.0791
33.929
33.7807
33.6342
33.4897
33.3471
33.2064
33.0678
32.9312
32.7967
32.6643
32.534
32.4058
32.2799
32.1561
32.0346
31.9152
31.7982
31.6834
31.5708
31.4606
31.3527
31.247
31.1437
31.0427
30.944
30.8477
30.7536
30.6619
30.5726
30.4855
30.4007
30.3183
30.2382
30.1603
30.0848
30.0115
29.9404
29.8717
29.8051
29.7408
29.6787
29.6188
29.561
29.5054
29.452
29.4006
29.3514
29.3042
29.2591
29.2161
29.175
29.1359
29.0988
29.0637
29.0304
28.9991
28.9696
28.9419
28.9161
28.8921
28.8698
28.8493
28.8305
28.8133
28.7979
28.784
28.7718
28.7611
28.752
28.7443
28.7382
28.7336
28.7303
28.7285
28.7281
28.729
28.7312
28.7347
28.7395
28.7455
28.7527
28.7611
28.7707
28.7814
28.7931
28.806
28.8199
28.8348
28.8507
28.8676
28.8854
28.9041
28.9237
28.9442
28.9655
28.9876
29.0105
29.0341
29.0585
29.0836
29.1094
29.1359
29.163
29.1907
29.219
29.2479
29.2773
29.3073
29.3378
29.3687
29.4001
29.432
29.4643
29.497
29.53
29.5635
29.5972
29.6313
29.6657
29.7004
29.7354
29.7706
29.8061
29.8417
29.8776
29.9136
29.9498
29.9862
30.0227
30.0593
30.096
30.1328
30.1697
30.2066
30.2436
30.2806
30.3176
30.3546
30.3916
30.4286
30.4655
30.5024
30.5392
30.576
30.6127
30.6492
30.6857
30.722
30.7582
30.7943
30.8302
30.866
30.9015
30.9369
30.9721
31.0071
31.0419
31.0765
31.1108
31.1449
31.1788
31.2124
31.2457
31.2788
31.3115
31.344
31.3762
31.4081
31.4397
31.471
31.502
31.5326
31.5629
31.5928
31.6224
31.6517
31.6806
31.7091
31.7373
31.765
31.7924
31.8194
31.8461
31.8723
31.8981
31.9235
31.9486
31.9732
31.9973
32.0211
32.0444
32.0673
32.0898
32.1118
32.1334
32.1545
32.1752
32.1955
32.2153
32.2346
32.2535
32.2719
32.2898
32.3073
32.3243
32.3408
32.3569
32.3724
32.3875
32.4021
32.4163
32.4299
32.443
32.4557
32.4678
32.4795
32.4907
32.5014
32.5115
32.5212
32.5304
32.539
32.5472
32.5549
32.562
32.5687
32.5748
32.5804
32.5856
32.5902
32.5943
32.5979
32.6009
32.6035
32.6056
32.6071
32.6081
32.6086
44.9976
44.9897
44.9738
44.9507
44.9208
44.8848
44.843
44.7957
44.7432
44.6858
44.6234
44.5563
44.4845
44.4082
44.3274
44.2421
44.1526
44.0588
43.9609
43.859
43.7531
43.6434
43.53
43.413
43.2924
43.1684
43.0412
42.9107
42.7771
42.6405
42.501
42.3587
42.2138
42.0663
41.9164
41.7641
41.6097
41.4531
41.2945
41.1341
40.9719
40.8081
40.6427
40.4759
40.3077
40.1384
39.9679
39.7965
39.6241
39.451
39.2772
39.1028
38.928
38.7527
38.5772
38.4015
38.2258
38.05
37.8743
37.6989
37.5237
37.3489
37.1745
37.0007
36.8275
36.655
36.4833
36.3125
36.1426
35.9737
35.8058
35.6392
35.4737
35.3095
35.1467
34.9853
34.8253
34.6668
34.5099
34.3547
34.2011
34.0493
33.8992
33.7509
33.6045
33.46
33.3174
33.1769
33.0383
32.9017
32.7673
32.6349
32.5047
32.3766
32.2507
32.127
32.0055
31.8862
31.7692
31.6545
31.542
31.4318
31.324
31.2184
31.1152
31.0143
30.9156
30.8194
30.7254
30.6338
30.5445
30.4575
30.3728
30.2905
30.2104
30.1327
30.0572
29.984
29.913
29.8443
29.7779
29.7136
29.6516
29.5918
29.5341
29.4786
29.4252
29.374
29.3248
29.2778
29.2327
29.1897
29.1488
29.1098
29.0728
29.0377
29.0045
28.9733
28.9439
28.9163
28.8906
28.8666
28.8444
28.824
28.8052
28.7882
28.7728
28.759
28.7468
28.7363
28.7272
28.7197
28.7136
28.709
28.7059
28.7041
28.7038
28.7047
28.707
28.7106
28.7155
28.7215
28.7288
28.7373
28.7469
28.7577
28.7695
28.7824
28.7964
28.8114
28.8273
28.8443
28.8621
28.8809
28.9006
28.9211
28.9424
28.9646
28.9876
29.0113
29.0357
29.0609
29.0867
29.1132
29.1404
29.1681
29.1965
29.2254
29.2549
29.2849
29.3154
29.3464
29.3779
29.4098
29.4421
29.4748
29.5079
29.5414
29.5752
29.6093
29.6438
29.6785
29.7135
29.7488
29.7842
29.8199
29.8558
29.8919
29.9281
29.9645
30.001
30.0377
30.0744
30.1112
30.1481
30.1851
30.2221
30.2591
30.2961
30.3332
30.3702
30.4072
30.4442
30.4811
30.5179
30.5547
30.5914
30.628
30.6644
30.7008
30.737
30.7731
30.809
30.8448
30.8804
30.9158
30.951
30.986
31.0208
31.0554
31.0897
31.1238
31.1577
31.1913
31.2246
31.2577
31.2905
31.323
31.3552
31.3871
31.4187
31.45
31.481
31.5116
31.5419
31.5719
31.6015
31.6307
31.6596
31.6882
31.7163
31.7441
31.7715
31.7985
31.8252
31.8514
31.8772
31.9026
31.9277
31.9523
31.9764
32.0002
32.0235
32.0464
32.0689
32.0909
32.1125
32.1337
32.1544
32.1746
32.1944
32.2138
32.2326
32.251
32.269
32.2864
32.3034
32.32
32.336
32.3516
32.3667
32.3813
32.3954
32.4091
32.4222
32.4349
32.447
32.4587
32.4699
32.4805
32.4907
32.5004
32.5095
32.5182
32.5264
32.534
32.5412
32.5478
32.554
32.5596
32.5647
32.5693
32.5734
32.577
32.5801
32.5827
32.5847
32.5863
32.5873
32.5878
44.9413
44.9332
44.9169
44.8934
44.8629
44.8262
44.7836
44.7355
44.6823
44.6241
44.5611
44.4934
44.4212
44.3444
44.2632
44.1776
44.0878
43.9938
43.8956
43.7935
43.6875
43.5776
43.4641
43.3469
43.2263
43.1022
42.9749
42.8443
42.7106
42.574
42.4345
42.2922
42.1472
41.9997
41.8498
41.6975
41.5431
41.3865
41.228
41.0675
40.9054
40.7416
40.5762
40.4094
40.2413
40.072
39.9016
39.7302
39.558
39.3849
39.2112
39.0369
38.8621
38.687
38.5115
38.3359
38.1603
37.9846
37.809
37.6337
37.4586
37.2839
37.1097
36.936
36.7629
36.5905
36.4189
36.2482
36.0785
35.9097
35.742
35.5755
35.4102
35.2461
35.0834
34.9221
34.7623
34.604
34.4473
34.2922
34.1388
33.9871
33.8372
33.6891
33.5428
33.3985
33.2561
33.1157
32.9772
32.8409
32.7066
32.5744
32.4443
32.3164
32.1906
32.0671
31.9458
31.8267
31.7099
31.5953
31.483
31.373
31.2653
31.1599
31.0569
30.9561
30.8577
30.7616
30.6678
30.5763
30.4872
30.4004
30.3159
30.2337
30.1538
30.0762
30.0009
29.9278
29.857
29.7885
29.7222
29.6581
29.5963
29.5366
29.4791
29.4237
29.3705
29.3194
29.2704
29.2234
29.1786
29.1357
29.0949
29.056
29.0191
28.9842
28.9512
28.92
28.8908
28.8633
28.8377
28.8139
28.7918
28.7715
28.7529
28.7359
28.7207
28.707
28.6949
28.6845
28.6755
28.6681
28.6621
28.6576
28.6546
28.6529
28.6527
28.6537
28.6561
28.6598
28.6647
28.6709
28.6783
28.6868
28.6965
28.7073
28.7192
28.7322
28.7463
28.7613
28.7773
28.7943
28.8123
28.8311
28.8508
28.8714
28.8928
28.915
28.938
28.9618
28.9863
29.0115
29.0374
29.0639
29.0911
29.1189
29.1473
29.1763
29.2058
29.2359
29.2664
29.2974
29.3289
29.3609
29.3932
29.426
29.4591
29.4926
29.5264
29.5606
29.5951
29.6298
29.6648
29.7001
29.7356
29.7713
29.8072
29.8433
29.8795
29.9159
29.9525
29.9891
30.0258
30.0627
30.0996
30.1365
30.1735
30.2106
30.2476
30.2846
30.3217
30.3587
30.3956
30.4325
30.4694
30.5062
30.5428
30.5794
30.6159
30.6522
30.6885
30.7245
30.7605
30.7962
30.8318
30.8672
30.9024
30.9374
30.9722
31.0068
31.0411
31.0752
31.1091
31.1427
31.176
31.209
31.2418
31.2743
31.3065
31.3384
31.37
31.4013
31.4322
31.4628
31.4931
31.5231
31.5527
31.5819
31.6108
31.6393
31.6675
31.6952
31.7226
31.7496
31.7763
31.8025
31.8283
31.8537
31.8787
31.9033
31.9275
31.9512
31.9745
31.9974
32.0199
32.0419
32.0635
32.0846
32.1053
32.1255
32.1453
32.1646
32.1835
32.2019
32.2198
32.2373
32.2543
32.2708
32.2868
32.3024
32.3175
32.3321
32.3462
32.3598
32.373
32.3856
32.3978
32.4094
32.4206
32.4312
32.4414
32.4511
32.4602
32.4689
32.4771
32.4847
32.4919
32.4985
32.5047
32.5103
32.5154
32.52
32.5241
32.5277
32.5308
32.5333
32.5354
32.5369
32.538
32.5385
44.9084
44.9005
44.8845
44.8613
44.8311
44.7947
44.7523
44.7043
44.6511
44.5929
44.5297
44.4618
44.3893
44.3123
44.2308
44.145
44.0549
43.9606
43.8622
43.7598
43.6535
43.5434
43.4297
43.3123
43.1914
43.0671
42.9395
42.8088
42.6749
42.5381
42.3984
42.2559
42.1107
41.9631
41.813
41.6606
41.5059
41.3492
41.1905
41.03
40.8676
40.7037
40.5382
40.3713
40.2031
40.0337
39.8632
39.6917
39.5193
39.3461
39.1723
38.9979
38.823
38.6478
38.4723
38.2966
38.1209
37.9452
37.7695
37.5941
37.419
37.2442
37.07
36.8962
36.7231
36.5507
36.3791
36.2084
36.0386
35.8698
35.7021
35.5356
35.3703
35.2062
35.0435
34.8823
34.7224
34.5642
34.4075
34.2524
34.099
33.9473
33.7974
33.6494
33.5032
33.3589
33.2165
33.0762
32.9378
32.8015
32.6673
32.5351
32.4051
32.2773
32.1516
32.0282
31.9069
31.7879
31.6712
31.5567
31.4445
31.3346
31.227
31.1217
31.0187
30.918
30.8197
30.7237
30.63
30.5387
30.4496
30.3629
30.2785
30.1965
30.1167
30.0392
29.964
29.8911
29.8204
29.752
29.6858
29.6218
29.5601
29.5005
29.4431
29.3879
29.3348
29.2838
29.2349
29.1881
29.1434
29.1006
29.0599
29.0212
28.9844
28.9496
28.9167
28.8857
28.8565
28.8292
28.8037
28.78
28.7581
28.7379
28.7194
28.7026
28.6874
28.6739
28.6619
28.6515
28.6427
28.6354
28.6296
28.6252
28.6222
28.6207
28.6205
28.6217
28.6242
28.628
28.633
28.6393
28.6468
28.6554
28.6652
28.6761
28.6882
28.7013
28.7154
28.7305
28.7466
28.7637
28.7818
28.8007
28.8205
28.8412
28.8627
28.885
28.9081
28.9319
28.9565
28.9818
29.0077
29.0344
29.0616
29.0895
29.118
29.147
29.1766
29.2067
29.2373
29.2684
29.3
29.332
29.3644
29.3972
29.4304
29.464
29.4979
29.5321
29.5666
29.6014
29.6365
29.6718
29.7074
29.7431
29.7791
29.8152
29.8515
29.888
29.9245
29.9612
29.998
30.0349
30.0718
30.1088
30.1459
30.1829
30.22
30.2571
30.2942
30.3312
30.3682
30.4052
30.442
30.4788
30.5156
30.5522
30.5887
30.6251
30.6613
30.6974
30.7334
30.7692
30.8048
30.8402
30.8754
30.9104
30.9453
30.9798
31.0142
31.0483
31.0822
31.1158
31.1492
31.1823
31.2151
31.2476
31.2798
31.3117
31.3433
31.3746
31.4056
31.4362
31.4665
31.4965
31.5261
31.5553
31.5842
31.6127
31.6409
31.6687
31.6961
31.7231
31.7497
31.776
31.8018
31.8272
31.8522
31.8768
31.901
31.9248
31.9481
31.971
31.9935
32.0155
32.0371
32.0582
32.0789
32.0991
32.1189
32.1383
32.1571
32.1755
32.1935
32.2109
32.2279
32.2445
32.2605
32.2761
32.2911
32.3058
32.3199
32.3335
32.3466
32.3593
32.3714
32.3831
32.3943
32.4049
32.4151
32.4248
32.434
32.4426
32.4508
32.4584
32.4656
32.4722
32.4784
32.484
32.4891
32.4937
32.4978
32.5014
32.5045
32.5071
32.5091
32.5106
32.5117
32.5122
44.8547
44.8468
44.8308
44.8075
44.7771
44.7405
44.6977
44.6494
44.5957
44.537
44.4734
44.405
44.3321
44.2546
44.1727
44.0865
43.996
43.9014
43.8027
43.7
43.5934
43.4831
43.3691
43.2515
43.1304
43.0059
42.8782
42.7472
42.6132
42.4762
42.3363
42.1937
42.0484
41.9006
41.7504
41.5978
41.4431
41.2863
41.1275
40.9669
40.8045
40.6404
40.4749
40.3079
40.1396
39.9702
39.7996
39.6281
39.4556
39.2825
39.1086
38.9342
38.7593
38.5841
38.4086
38.2329
38.0571
37.8814
37.7058
37.5304
37.3553
37.1806
37.0063
36.8326
36.6596
36.4872
36.3157
36.145
35.9753
35.8066
35.6389
35.4725
35.3072
35.1433
34.9807
34.8195
34.6598
34.5016
34.345
34.19
34.0367
33.8852
33.7354
33.5875
33.4414
33.2972
33.155
33.0148
32.8765
32.7403
32.6062
32.4743
32.3444
32.2167
32.0912
31.9679
31.8468
31.7279
31.6113
31.497
31.385
31.2752
31.1678
31.0626
30.9598
30.8593
30.7612
30.6653
30.5718
30.4806
30.3918
30.3052
30.221
30.1391
30.0595
29.9822
29.9071
29.8344
29.7639
29.6956
29.6296
29.5658
29.5043
29.4449
29.3877
29.3326
29.2797
29.2288
29.1801
29.1335
29.0889
29.0463
29.0058
28.9672
28.9306
28.896
28.8632
28.8324
28.8034
28.7762
28.7509
28.7273
28.7055
28.6855
28.6671
28.6505
28.6354
28.622
28.6102
28.6
28.5913
28.5841
28.5785
28.5742
28.5714
28.57
28.57
28.5713
28.5739
28.5778
28.5829
28.5893
28.5969
28.6057
28.6156
28.6267
28.6388
28.652
28.6662
28.6815
28.6977
28.7149
28.733
28.7521
28.772
28.7927
28.8143
28.8367
28.8599
28.8838
28.9085
28.9339
28.9599
28.9866
29.014
29.0419
29.0705
29.0996
29.1293
29.1594
29.1901
29.2213
29.2529
29.285
29.3175
29.3503
29.3836
29.4172
29.4512
29.4854
29.52
29.5549
29.59
29.6254
29.661
29.6968
29.7328
29.769
29.8053
29.8418
29.8784
29.9151
29.952
29.9889
30.0258
30.0629
30.1
30.1371
30.1742
30.2113
30.2484
30.2854
30.3225
30.3594
30.3963
30.4332
30.4699
30.5065
30.5431
30.5795
30.6157
30.6519
30.6878
30.7236
30.7593
30.7947
30.8299
30.865
30.8998
30.9344
30.9688
31.0029
31.0368
31.0704
31.1038
31.1369
31.1697
31.2022
31.2344
31.2664
31.298
31.3293
31.3602
31.3909
31.4212
31.4511
31.4808
31.51
31.5389
31.5674
31.5956
31.6234
31.6508
31.6778
31.7045
31.7307
31.7565
31.7819
31.8069
31.8315
31.8557
31.8795
31.9028
31.9257
31.9482
31.9702
31.9918
32.0129
32.0336
32.0538
32.0736
32.093
32.1118
32.1302
32.1482
32.1656
32.1826
32.1991
32.2152
32.2307
32.2458
32.2604
32.2745
32.2882
32.3013
32.314
32.3261
32.3378
32.3489
32.3596
32.3698
32.3794
32.3886
32.3973
32.4054
32.4131
32.4202
32.4269
32.433
32.4387
32.4438
32.4484
32.4525
32.4561
32.4591
32.4617
32.4638
32.4653
32.4663
32.4668
44.8176
44.8098
44.794
44.771
44.7409
44.7045
44.6619
44.6137
44.56
44.5012
44.4374
44.3689
44.2956
44.2179
44.1357
44.0491
43.9583
43.8633
43.7643
43.6613
43.5544
43.4438
43.3295
43.2116
43.0902
42.9654
42.8373
42.7061
42.5718
42.4345
42.2944
42.1515
42.006
41.8579
41.7074
41.5547
41.3997
41.2427
41.0837
40.9228
40.7602
40.596
40.4302
40.263
40.0946
39.9249
39.7542
39.5825
39.4099
39.2366
39.0626
38.888
38.713
38.5376
38.362
38.1862
38.0103
37.8345
37.6588
37.4833
37.3081
37.1333
36.9589
36.7852
36.612
36.4396
36.268
36.0973
35.9275
35.7588
35.5911
35.4246
35.2593
35.0954
34.9327
34.7716
34.6118
34.4536
34.2971
34.1421
33.9888
33.8373
33.6876
33.5396
33.3936
33.2495
33.1073
32.9671
32.8289
32.6928
32.5588
32.4268
32.2971
32.1694
32.044
31.9208
31.7998
31.681
31.5645
31.4503
31.3384
31.2287
31.1214
31.0164
30.9137
30.8133
30.7152
30.6195
30.5261
30.4351
30.3463
30.2599
30.1759
30.0941
30.0146
29.9374
29.8625
29.7899
29.7196
29.6515
29.5856
29.522
29.4606
29.4013
29.3443
29.2893
29.2366
29.1859
29.1373
29.0909
29.0464
29.004
28.9636
28.9252
28.8888
28.8543
28.8217
28.791
28.7622
28.7352
28.71
28.6866
28.665
28.6451
28.6269
28.6104
28.5955
28.5823
28.5706
28.5606
28.552
28.545
28.5394
28.5354
28.5327
28.5314
28.5315
28.533
28.5358
28.5398
28.5451
28.5516
28.5594
28.5683
28.5783
28.5895
28.6018
28.6151
28.6295
28.6449
28.6612
28.6785
28.6968
28.7159
28.736
28.7569
28.7786
28.8011
28.8244
28.8484
28.8732
28.8987
28.9249
28.9517
28.9791
29.0072
29.0359
29.0651
29.0948
29.1251
29.1559
29.1872
29.2189
29.251
29.2836
29.3166
29.3499
29.3836
29.4177
29.452
29.4867
29.5216
29.5568
29.5923
29.628
29.6638
29.6999
29.7362
29.7726
29.8091
29.8458
29.8826
29.9195
29.9565
29.9935
30.0306
30.0678
30.1049
30.1421
30.1793
30.2164
30.2535
30.2906
30.3276
30.3646
30.4015
30.4383
30.475
30.5115
30.548
30.5843
30.6205
30.6565
30.6923
30.728
30.7635
30.7987
30.8338
30.8687
30.9033
30.9377
30.9719
31.0058
31.0395
31.0729
31.106
31.1388
31.1714
31.2036
31.2356
31.2672
31.2985
31.3295
31.3602
31.3905
31.4205
31.4502
31.4795
31.5084
31.5369
31.5651
31.5929
31.6203
31.6474
31.674
31.7003
31.7261
31.7516
31.7766
31.8012
31.8254
31.8492
31.8725
31.8954
31.9179
31.9399
31.9615
31.9827
32.0034
32.0237
32.0434
32.0628
32.0817
32.1001
32.118
32.1355
32.1525
32.169
32.1851
32.2006
32.2157
32.2303
32.2445
32.2581
32.2712
32.2839
32.2961
32.3077
32.3189
32.3296
32.3397
32.3494
32.3586
32.3673
32.3754
32.3831
32.3902
32.3969
32.403
32.4086
32.4138
32.4184
32.4225
32.4261
32.4291
32.4317
32.4338
32.4353
32.4363
32.4368
44.7663
44.7585
44.7428
44.7198
44.6898
44.6533
44.6105
44.5621
44.5081
44.449
44.3849
44.3159
44.2423
44.1641
44.0814
43.9945
43.9032
43.8079
43.7085
43.6051
43.4979
43.3869
43.2722
43.154
43.0323
42.9073
42.7789
42.6474
42.5128
42.3753
42.2349
42.0917
41.946
41.7977
41.647
41.494
41.3388
41.1816
41.0224
40.8613
40.6985
40.5341
40.3682
40.2009
40.0322
39.8624
39.6916
39.5197
39.347
39.1736
38.9994
38.8248
38.6496
38.4742
38.2984
38.1226
37.9466
37.7707
37.595
37.4194
37.2442
37.0693
36.8949
36.7211
36.548
36.3755
36.2039
36.0332
35.8634
35.6946
35.527
35.3605
35.1953
35.0313
34.8688
34.7076
34.5479
34.3898
34.2332
34.0783
33.9251
33.7737
33.624
33.4762
33.3302
33.1862
33.0441
32.904
32.766
32.6299
32.496
32.3642
32.2345
32.1071
31.9817
31.8586
31.7378
31.6192
31.5028
31.3887
31.2769
31.1675
31.0603
30.9554
30.8529
30.7527
30.6548
30.5592
30.466
30.3751
30.2866
30.2003
30.1164
30.0348
29.9555
29.8786
29.8038
29.7314
29.6613
29.5933
29.5277
29.4642
29.403
29.3439
29.2871
29.2323
29.1798
29.1293
29.0809
29.0346
28.9904
28.9482
28.908
28.8698
28.8335
28.7992
28.7668
28.7363
28.7077
28.6809
28.6559
28.6327
28.6112
28.5915
28.5735
28.5572
28.5425
28.5294
28.518
28.5081
28.4997
28.4928
28.4875
28.4836
28.4811
28.48
28.4803
28.4819
28.4848
28.489
28.4945
28.5012
28.5091
28.5181
28.5283
28.5397
28.5521
28.5656
28.5801
28.5956
28.6121
28.6296
28.6479
28.6672
28.6874
28.7084
28.7303
28.7529
28.7763
28.8005
28.8254
28.851
28.8773
28.9042
28.9318
28.96
28.9887
29.0181
29.0479
29.0783
29.1092
29.1406
29.1724
29.2047
29.2373
29.2704
29.3038
29.3376
29.3717
29.4062
29.4409
29.476
29.5112
29.5468
29.5825
29.6185
29.6546
29.691
29.7275
29.7641
29.8008
29.8377
29.8747
29.9117
29.9488
29.986
30.0232
30.0604
30.0976
30.1348
30.172
30.2092
30.2463
30.2834
30.3204
30.3573
30.3942
30.4309
30.4675
30.504
30.5404
30.5766
30.6126
30.6485
30.6842
30.7197
30.7551
30.7902
30.8251
30.8597
30.8942
30.9284
30.9623
30.996
31.0294
31.0626
31.0954
31.128
31.1603
31.1923
31.2239
31.2553
31.2863
31.317
31.3473
31.3773
31.407
31.4363
31.4652
31.4938
31.522
31.5498
31.5773
31.6043
31.631
31.6572
31.6831
31.7086
31.7336
31.7582
31.7824
31.8062
31.8296
31.8525
31.875
31.897
31.9186
31.9398
31.9605
31.9808
32.0006
32.0199
32.0388
32.0572
32.0752
32.0926
32.1096
32.1262
32.1422
32.1578
32.1729
32.1875
32.2016
32.2153
32.2284
32.2411
32.2533
32.2649
32.2761
32.2868
32.2969
32.3066
32.3158
32.3245
32.3326
32.3403
32.3474
32.3541
32.3602
32.3659
32.371
32.3756
32.3797
32.3833
32.3864
32.3889
32.391
32.3925
32.3936
32.3941
44.7265
44.7188
44.7032
44.6805
44.6507
44.6143
44.5717
44.5233
44.4693
44.4101
44.3457
44.2766
44.2026
44.1241
44.0411
43.9538
43.8622
43.7664
43.6666
43.5629
43.4553
43.3439
43.2288
43.1102
42.9882
42.8627
42.734
42.6021
42.4672
42.3293
42.1885
42.0451
41.899
41.7504
41.5993
41.446
41.2905
41.133
40.9735
40.8122
40.6491
40.4844
40.3182
40.1506
39.9818
39.8117
39.6406
39.4685
39.2956
39.1219
38.9476
38.7727
38.5974
38.4217
38.2458
38.0698
37.8937
37.7176
37.5417
37.366
37.1906
37.0156
36.8411
36.6672
36.4939
36.3214
36.1497
35.9788
35.809
35.6401
35.4724
35.3059
35.1406
34.9766
34.814
34.6528
34.4931
34.3349
34.1784
34.0235
33.8703
33.7188
33.5692
33.4214
33.2754
33.1314
32.9894
32.8493
32.7113
32.5754
32.4415
32.3098
32.1802
32.0528
31.9275
31.8045
31.6838
31.5652
31.449
31.335
31.2233
31.114
31.0069
30.9022
30.7998
30.6997
30.602
30.5065
30.4135
30.3227
30.2343
30.1483
30.0645
29.9831
29.9039
29.8271
29.7526
29.6803
29.6103
29.5426
29.4771
29.4138
29.3528
29.2939
29.2372
29.1827
29.1303
29.08
29.0318
28.9857
28.9417
28.8997
28.8597
28.8217
28.7856
28.7515
28.7193
28.689
28.6605
28.6339
28.6091
28.5861
28.5649
28.5453
28.5275
28.5114
28.4969
28.484
28.4728
28.4631
28.4549
28.4482
28.4431
28.4393
28.437
28.4361
28.4366
28.4384
28.4415
28.4459
28.4515
28.4584
28.4665
28.4757
28.4861
28.4976
28.5102
28.5238
28.5385
28.5542
28.5709
28.5885
28.607
28.6265
28.6468
28.668
28.69
28.7128
28.7363
28.7607
28.7857
28.8115
28.8379
28.865
28.8927
28.921
28.9499
28.9793
29.0093
29.0399
29.0709
29.1024
29.1343
29.1667
29.1995
29.2327
29.2662
29.3001
29.3344
29.3689
29.4038
29.4389
29.4743
29.5099
29.5458
29.5819
29.6181
29.6545
29.6911
29.7278
29.7647
29.8016
29.8387
29.8758
29.913
29.9502
29.9875
30.0248
30.0621
30.0994
30.1367
30.1739
30.2112
30.2483
30.2854
30.3224
30.3593
30.3961
30.4328
30.4693
30.5057
30.542
30.5781
30.614
30.6498
30.6854
30.7208
30.7559
30.7909
30.8256
30.8601
30.8943
30.9283
30.9621
30.9955
31.0287
31.0616
31.0942
31.1266
31.1586
31.1903
31.2217
31.2527
31.2834
31.3138
31.3439
31.3736
31.4029
31.4319
31.4605
31.4887
31.5165
31.544
31.5711
31.5978
31.6241
31.65
31.6754
31.7005
31.7251
31.7494
31.7732
31.7966
31.8195
31.842
31.8641
31.8857
31.9069
31.9276
31.9479
31.9677
31.9871
32.006
32.0244
32.0424
32.0599
32.0769
32.0934
32.1095
32.1251
32.1402
32.1548
32.169
32.1826
32.1958
32.2084
32.2206
32.2323
32.2435
32.2541
32.2643
32.274
32.2832
32.2919
32.3
32.3077
32.3149
32.3215
32.3277
32.3333
32.3384
32.343
32.3471
32.3507
32.3538
32.3564
32.3584
32.36
32.361
32.3615
44.6771
44.6695
44.654
44.6314
44.6016
44.5652
44.5225
44.474
44.4198
44.3602
44.2956
44.226
44.1516
44.0727
43.9893
43.9015
43.8094
43.7133
43.613
43.5088
43.4008
43.289
43.1736
43.0546
42.9321
42.8062
42.6771
42.5449
42.4096
42.2713
42.1302
41.9864
41.84
41.691
41.5397
41.3861
41.2303
41.0724
40.9126
40.751
40.5877
40.4227
40.2563
40.0884
39.9193
39.749
39.5777
39.4054
39.2322
39.0583
38.8838
38.7087
38.5332
38.3574
38.1813
38.0051
37.8289
37.6526
37.4766
37.3007
37.1252
36.9501
36.7755
36.6015
36.4282
36.2556
36.0838
35.9129
35.7429
35.5741
35.4063
35.2397
35.0744
34.9104
34.7478
34.5866
34.4269
34.2687
34.1122
33.9573
33.8041
33.6527
33.5031
33.3554
33.2095
33.0655
32.9236
32.7836
32.6457
32.5098
32.376
32.2444
32.1149
31.9876
31.8625
31.7396
31.6189
31.5006
31.3844
31.2706
31.1591
31.0499
30.943
30.8384
30.7361
30.6362
30.5386
30.4434
30.3505
30.26
30.1717
30.0859
30.0023
29.921
29.8421
29.7655
29.6912
29.6191
29.5493
29.4818
29.4165
29.3534
29.2926
29.2339
29.1775
29.1232
29.071
29.0209
28.973
28.9271
28.8832
28.8414
28.8017
28.7639
28.728
28.6941
28.6622
28.6321
28.6038
28.5775
28.5529
28.5301
28.5091
28.4898
28.4722
28.4562
28.442
28.4293
28.4183
28.4088
28.4008
28.3944
28.3894
28.3859
28.3838
28.3831
28.3837
28.3857
28.3891
28.3936
28.3995
28.4066
28.4148
28.4243
28.4348
28.4465
28.4593
28.4731
28.488
28.5039
28.5207