/*--------------------------------*- C++ -*----------------------------------*\
| =========                 |                                                 |
| \\      /  F ield         | OpenFOAM: The Open Source CFD Toolbox           |
|  \\    /   O peration     | Version:  2212                                  |
|   \\  /    A nd           | Website:  www.openfoam.com                      |
|    \\/     M anipulation  |                                                 |
\*---------------------------------------------------------------------------*/
FoamFile
{
    version     2.0;
    format      ascii;
    arch        "LSB;label=32;scalar=64";
    class       volScalarField;
    location    "600";
    object      p_rgh_0;
}
// * * * * * * * * * * * * * * * * * * * * * * * * * * * * * * * * * * * * * //

dimensions      [1 -1 -2 0 0 0 0];

internalField   nonuniform List<scalar> 
204800
(
45.1739
45.1695
45.1577
45.1394
45.1149
45.0841
45.0469
45.0036
44.9544
44.8994
44.8389
44.7733
44.7026
44.6271
44.5469
44.4622
44.373
44.2795
44.1818
44.08
43.9742
43.8645
43.7511
43.634
43.5133
43.3892
43.2618
43.1311
42.9972
42.8604
42.7206
42.578
42.4328
42.2849
42.1346
41.982
41.8271
41.6701
41.5111
41.3502
41.1875
41.0231
40.8572
40.6899
40.5212
40.3513
40.1803
40.0083
39.8353
39.6616
39.4872
39.3122
39.1367
38.9608
38.7847
38.6083
38.4319
38.2554
38.0791
37.9029
37.727
37.5515
37.3764
37.2019
37.0279
36.8547
36.6823
36.5107
36.34
36.1704
36.0018
35.8344
35.6682
35.5032
35.3396
35.1774
35.0167
34.8574
34.6998
34.5437
34.3894
34.2368
34.0859
33.9369
33.7897
33.6444
33.5011
33.3597
33.2204
33.0831
32.9478
32.8147
32.6837
32.5549
32.4282
32.3037
32.1815
32.0615
31.9438
31.8283
31.7151
31.6042
31.4956
31.3893
31.2854
31.1837
31.0844
30.9874
30.8928
30.8005
30.7105
30.6228
30.5375
30.4545
30.3738
30.2954
30.2192
30.1454
30.0738
30.0045
29.9374
29.8726
29.81
29.7495
29.6913
29.6352
29.5813
29.5294
29.4797
29.4321
29.3865
29.343
29.3015
29.262
29.2245
29.1889
29.1552
29.1235
29.0936
29.0656
29.0394
29.015
28.9924
28.9715
28.9523
28.9348
28.919
28.9048
28.8923
28.8813
28.8719
28.8639
28.8575
28.8526
28.8491
28.847
28.8463
28.8469
28.8489
28.8522
28.8567
28.8625
28.8695
28.8777
28.8871
28.8975
28.9091
28.9218
28.9355
28.9502
28.966
28.9827
29.0003
29.0189
29.0384
29.0587
29.0799
29.1018
29.1246
29.1482
29.1724
29.1974
29.2231
29.2495
29.2765
29.3041
29.3324
29.3612
29.3906
29.4205
29.4509
29.4818
29.5131
29.545
29.5772
29.6099
29.6429
29.6763
29.7101
29.7442
29.7785
29.8132
29.8482
29.8834
29.9189
29.9545
29.9904
30.0265
30.0627
30.0991
30.1356
30.1722
30.209
30.2458
30.2827
30.3197
30.3567
30.3937
30.4308
30.4679
30.5049
30.5419
30.579
30.6159
30.6528
30.6896
30.7264
30.763
30.7995
30.8359
30.8722
30.9084
30.9444
30.9802
31.0159
31.0513
31.0866
31.1217
31.1566
31.1912
31.2257
31.2598
31.2938
31.3275
31.3609
31.3941
31.4269
31.4595
31.4918
31.5238
31.5555
31.5869
31.6179
31.6487
31.6791
31.7091
31.7388
31.7682
31.7971
31.8258
31.854
31.8819
31.9094
31.9365
31.9632
31.9895
32.0155
32.041
32.0661
32.0908
32.115
32.1389
32.1623
32.1853
32.2079
32.23
32.2516
32.2729
32.2936
32.314
32.3338
32.3532
32.3722
32.3907
32.4087
32.4262
32.4433
32.4599
32.476
32.4917
32.5068
32.5215
32.5357
32.5493
32.5626
32.5753
32.5875
32.5992
32.6104
32.6211
32.6313
32.6411
32.6503
32.659
32.6672
32.6749
32.6821
32.6887
32.6949
32.7006
32.7057
32.7103
32.7145
32.7181
32.7212
32.7237
32.7258
32.7273
32.7284
32.7289
45.1162
45.1088
45.0937
45.0716
45.043
45.0083
44.9679
44.922
44.8708
44.8144
44.753
44.6867
44.6157
44.54
44.4597
44.3749
44.2857
44.1923
44.0947
43.993
43.8873
43.7778
43.6645
43.5476
43.4271
43.3032
43.1759
43.0454
42.9118
42.7751
42.6356
42.4932
42.3482
42.2006
42.0506
41.8982
41.7435
41.5868
41.4281
41.2674
41.105
40.941
40.7753
40.6083
40.4399
40.2703
40.0996
39.9279
39.7552
39.5818
39.4077
39.233
39.0578
38.8823
38.7064
38.5304
38.3542
38.1781
38.0021
37.8262
37.6506
37.4754
37.3007
37.1265
36.9529
36.7799
36.6078
36.4365
36.2662
36.0969
35.9286
35.7615
35.5956
35.4309
35.2676
35.1057
34.9453
34.7863
34.629
34.4732
34.3192
34.1668
34.0163
33.8675
33.7206
33.5756
33.4325
33.2915
33.1524
33.0153
32.8804
32.7475
32.6167
32.4881
32.3617
32.2375
32.1155
31.9958
31.8782
31.763
31.65
31.5394
31.431
31.3249
31.2212
31.1197
31.0206
30.9238
30.8294
30.7373
30.6475
30.56
30.4748
30.392
30.3114
30.2332
30.1572
30.0835
30.0121
29.943
29.876
29.8113
29.7488
29.6885
29.6304
29.5745
29.5206
29.4689
29.4193
29.3718
29.3264
29.2829
29.2415
29.2021
29.1647
29.1292
29.0956
29.0639
29.0341
29.0062
28.98
28.9557
28.9331
28.9123
28.8932
28.8758
28.86
28.8459
28.8334
28.8224
28.813
28.8052
28.7988
28.7939
28.7904
28.7883
28.7876
28.7883
28.7903
28.7936
28.7981
28.8039
28.8109
28.8191
28.8285
28.8389
28.8505
28.8632
28.8769
28.8916
28.9073
28.924
28.9417
28.9602
28.9797
29
29.0211
29.0431
29.0658
29.0893
29.1136
29.1385
29.1642
29.1905
29.2175
29.2451
29.2733
29.3021
29.3314
29.3613
29.3916
29.4225
29.4538
29.4856
29.5178
29.5504
29.5834
29.6167
29.6504
29.6845
29.7188
29.7534
29.7883
29.8235
29.8589
29.8945
29.9303
29.9663
30.0025
30.0388
30.0753
30.1119
30.1485
30.1853
30.2222
30.2591
30.296
30.333
30.37
30.407
30.444
30.481
30.5179
30.5548
30.5916
30.6284
30.6651
30.7017
30.7381
30.7745
30.8107
30.8468
30.8827
30.9185
30.9541
30.9895
31.0247
31.0597
31.0946
31.1292
31.1635
31.1976
31.2315
31.2652
31.2985
31.3316
31.3644
31.397
31.4292
31.4612
31.4928
31.5241
31.5551
31.5858
31.6161
31.6461
31.6758
31.7051
31.734
31.7626
31.7908
31.8186
31.8461
31.8731
31.8998
31.9261
31.9519
31.9774
32.0025
32.0271
32.0513
32.0751
32.0985
32.1215
32.144
32.1661
32.1877
32.2089
32.2296
32.2499
32.2697
32.2891
32.308
32.3265
32.3445
32.362
32.379
32.3956
32.4117
32.4273
32.4424
32.457
32.4712
32.4849
32.498
32.5107
32.5229
32.5346
32.5458
32.5565
32.5667
32.5764
32.5856
32.5943
32.6025
32.6102
32.6173
32.624
32.6302
32.6358
32.6409
32.6456
32.6497
32.6533
32.6564
32.6589
32.661
32.6625
32.6636
32.6641
45.1009
45.0933
45.0782
45.0562
45.0278
44.9932
44.9528
44.9069
44.8556
44.7992
44.7377
44.6713
44.6002
44.5243
44.4439
44.359
44.2698
44.1762
44.0785
43.9767
43.871
43.7614
43.648
43.531
43.4105
43.2865
43.1592
43.0286
42.8949
42.7582
42.6186
42.4762
42.3311
42.1835
42.0334
41.881
41.7263
41.5695
41.4108
41.2501
41.0877
40.9236
40.7579
40.5909
40.4224
40.2528
40.0821
39.9103
39.7377
39.5642
39.3901
39.2154
39.0402
38.8647
38.6888
38.5127
38.3366
38.1605
37.9844
37.8086
37.633
37.4578
37.2831
37.1088
36.9352
36.7624
36.5902
36.419
36.2486
36.0793
35.9111
35.744
35.5781
35.4134
35.2501
35.0883
34.9278
34.7689
34.6116
34.4559
34.3019
34.1495
33.999
33.8503
33.7034
33.5584
33.4154
33.2743
33.1353
32.9983
32.8633
32.7305
32.5998
32.4712
32.3449
32.2207
32.0987
31.979
31.8615
31.7463
31.6334
31.5228
31.4144
31.3084
31.2047
31.1033
31.0043
30.9075
30.8131
30.721
30.6313
30.5438
30.4587
30.3759
30.2954
30.2172
30.1413
30.0677
29.9963
29.9272
29.8603
29.7956
29.7332
29.6729
29.6149
29.559
29.5052
29.4535
29.404
29.3565
29.3111
29.2677
29.2263
29.187
29.1496
29.1141
29.0806
29.049
29.0192
28.9913
28.9652
28.9409
28.9184
28.8976
28.8785
28.8612
28.8454
28.8313
28.8189
28.808
28.7986
28.7908
28.7844
28.7795
28.7761
28.7741
28.7734
28.7741
28.7761
28.7795
28.784
28.7899
28.7969
28.8051
28.8145
28.825
28.8366
28.8493
28.8631
28.8778
28.8936
28.9103
28.928
28.9465
28.966
28.9863
29.0075
29.0295
29.0523
29.0758
29.1001
29.1251
29.1508
29.1771
29.2041
29.2317
29.2599
29.2887
29.3181
29.348
29.3783
29.4092
29.4406
29.4724
29.5046
29.5372
29.5702
29.6036
29.6373
29.6713
29.7057
29.7403
29.7753
29.8104
29.8458
29.8815
29.9173
29.9533
29.9895
30.0258
30.0623
30.0989
30.1356
30.1723
30.2092
30.2461
30.2831
30.3201
30.3571
30.3941
30.4311
30.4681
30.505
30.5419
30.5788
30.6155
30.6522
30.6888
30.7253
30.7616
30.7979
30.834
30.8699
30.9057
30.9413
30.9767
31.0119
31.0469
31.0818
31.1164
31.1507
31.1849
31.2188
31.2524
31.2858
31.3189
31.3517
31.3842
31.4165
31.4484
31.48
31.5114
31.5424
31.573
31.6034
31.6334
31.663
31.6923
31.7213
31.7498
31.778
31.8059
31.8333
31.8604
31.887
31.9133
31.9392
31.9647
31.9897
32.0144
32.0386
32.0624
32.0858
32.1087
32.1312
32.1533
32.175
32.1961
32.2169
32.2372
32.257
32.2764
32.2953
32.3137
32.3317
32.3492
32.3663
32.3828
32.3989
32.4145
32.4297
32.4443
32.4585
32.4721
32.4853
32.498
32.5102
32.5219
32.5331
32.5438
32.554
32.5637
32.5729
32.5815
32.5897
32.5974
32.6046
32.6113
32.6174
32.6231
32.6282
32.6328
32.6369
32.6405
32.6436
32.6462
32.6482
32.6498
32.6508
32.6513
45.0421
45.034
45.0178
44.9944
44.9642
44.9279
44.8859
44.8385
44.7859
44.7284
44.6661
44.5991
44.5274
44.4512
44.3705
44.2853
44.1959
44.1022
44.0044
43.9026
43.7968
43.6872
43.5738
43.4569
43.3363
43.2124
43.0851
42.9546
42.821
42.6844
42.5449
42.4026
42.2576
42.11
41.9601
41.8077
41.6532
41.4966
41.3379
41.1774
41.0151
40.8512
40.6857
40.5187
40.3505
40.181
40.0105
39.8389
39.6664
39.4932
39.3192
39.1447
38.9697
38.7943
38.6186
38.4428
38.2668
38.0909
37.9151
37.7394
37.5641
37.3891
37.2145
37.0405
36.8671
36.6945
36.5225
36.3515
36.1814
36.0123
35.8442
35.6773
35.5117
35.3473
35.1842
35.0225
34.8623
34.7036
34.5465
34.391
34.2372
34.0851
33.9348
33.7863
33.6396
33.4949
33.352
33.2112
33.0724
32.9356
32.8008
32.6682
32.5377
32.4093
32.2832
32.1592
32.0374
31.9179
31.8006
31.6856
31.5729
31.4624
31.3543
31.2485
31.1449
31.0437
30.9449
30.8483
30.7541
30.6622
30.5726
30.4853
30.4004
30.3177
30.2374
30.1594
30.0836
30.0101
29.9389
29.8699
29.8032
29.7387
29.6764
29.6163
29.5583
29.5026
29.4489
29.3974
29.348
29.3006
29.2553
29.2121
29.1708
29.1316
29.0943
29.0589
29.0255
28.994
28.9643
28.9365
28.9105
28.8863
28.8639
28.8432
28.8242
28.8069
28.7913
28.7773
28.7649
28.754
28.7447
28.737
28.7307
28.7259
28.7225
28.7205
28.7199
28.7207
28.7228
28.7262
28.7308
28.7367
28.7437
28.752
28.7614
28.772
28.7836
28.7964
28.8101
28.8249
28.8407
28.8574
28.8751
28.8937
28.9132
28.9336
28.9548
28.9768
28.9995
29.0231
29.0474
29.0724
29.0981
29.1244
29.1514
29.1791
29.2073
29.2361
29.2654
29.2953
29.3257
29.3565
29.3879
29.4197
29.4519
29.4845
29.5175
29.5509
29.5846
29.6186
29.6529
29.6876
29.7225
29.7576
29.793
29.8286
29.8644
29.9004
29.9366
29.9729
30.0093
30.0459
30.0826
30.1193
30.1562
30.1931
30.23
30.267
30.3039
30.3409
30.3779
30.4149
30.4518
30.4886
30.5255
30.5622
30.5988
30.6354
30.6718
30.7082
30.7444
30.7804
30.8163
30.8521
30.8876
30.923
30.9582
30.9932
31.028
31.0626
31.0969
31.131
31.1649
31.1985
31.2318
31.2649
31.2977
31.3302
31.3624
31.3943
31.4259
31.4572
31.4881
31.5188
31.5491
31.5791
31.6087
31.6379
31.6668
31.6954
31.7236
31.7514
31.7788
31.8058
31.8325
31.8587
31.8846
31.91
31.935
31.9596
31.9838
32.0076
32.031
32.0539
32.0764
32.0984
32.12
32.1412
32.1619
32.1822
32.202
32.2214
32.2402
32.2587
32.2766
32.2941
32.3111
32.3277
32.3438
32.3594
32.3745
32.3891
32.4032
32.4169
32.43
32.4427
32.4549
32.4666
32.4777
32.4884
32.4986
32.5083
32.5175
32.5262
32.5344
32.542
32.5492
32.5558
32.562
32.5676
32.5728
32.5774
32.5815
32.5851
32.5882
32.5907
32.5928
32.5943
32.5954
32.5959
45.0159
45.008
44.9921
44.969
44.9391
44.9031
44.8612
44.8138
44.7613
44.7037
44.6412
44.5741
44.5022
44.4258
44.3448
44.2595
44.1699
44.076
43.978
43.876
43.77
43.6603
43.5467
43.4296
43.309
43.1849
43.0575
42.9268
42.7931
42.6563
42.5167
42.3743
42.2292
42.0816
41.9315
41.7791
41.6244
41.4677
41.309
41.1484
40.986
40.822
40.6564
40.4894
40.3211
40.1516
39.9809
39.8093
39.6368
39.4635
39.2895
39.1149
38.9399
38.7644
38.5887
38.4128
38.2369
38.0609
37.8851
37.7094
37.534
37.359
37.1844
37.0104
36.837
36.6643
36.4924
36.3214
36.1513
35.9822
35.8141
35.6472
35.4816
35.3172
35.1541
34.9925
34.8323
34.6737
34.5166
34.3611
34.2073
34.0553
33.905
33.7565
33.6099
33.4652
33.3224
33.1816
33.0428
32.9061
32.7714
32.6388
32.5084
32.3801
32.254
32.13
32.0083
31.8889
31.7717
31.6567
31.5441
31.4337
31.3256
31.2199
31.1164
31.0153
30.9165
30.82
30.7258
30.634
30.5445
30.4573
30.3725
30.2899
30.2097
30.1317
30.056
29.9826
29.9115
29.8426
29.776
29.7115
29.6493
29.5893
29.5314
29.4757
29.4222
29.3707
29.3214
29.2741
29.2289
29.1858
29.1446
29.1054
29.0682
29.033
28.9996
28.9682
28.9386
28.9109
28.885
28.8609
28.8385
28.8179
28.799
28.7818
28.7662
28.7523
28.74
28.7292
28.72
28.7123
28.7061
28.7014
28.6981
28.6962
28.6956
28.6965
28.6986
28.7021
28.7068
28.7127
28.7199
28.7282
28.7377
28.7483
28.76
28.7728
28.7866
28.8015
28.8173
28.8341
28.8519
28.8705
28.8901
28.9105
28.9317
28.9538
28.9766
29.0002
29.0246
29.0496
29.0754
29.1018
29.1288
29.1565
29.1848
29.2136
29.243
29.2729
29.3033
29.3342
29.3656
29.3975
29.4297
29.4624
29.4954
29.5288
29.5625
29.5966
29.631
29.6656
29.7006
29.7358
29.7712
29.8068
29.8427
29.8787
29.9149
29.9512
29.9877
30.0243
30.061
30.0978
30.1346
30.1715
30.2085
30.2455
30.2825
30.3195
30.3565
30.3935
30.4304
30.4673
30.5041
30.5409
30.5776
30.6141
30.6506
30.6869
30.7231
30.7592
30.7951
30.8309
30.8665
30.9019
30.9371
30.9721
31.0069
31.0415
31.0758
31.1099
31.1438
31.1774
31.2108
31.2438
31.2766
31.3091
31.3414
31.3733
31.4049
31.4362
31.4672
31.4978
31.5281
31.5581
31.5877
31.617
31.6459
31.6745
31.7026
31.7305
31.7579
31.7849
31.8116
31.8378
31.8637
31.8891
31.9141
31.9388
31.963
31.9868
32.0101
32.033
32.0555
32.0776
32.0992
32.1204
32.1411
32.1613
32.1812
32.2005
32.2194
32.2378
32.2558
32.2733
32.2903
32.3069
32.3229
32.3385
32.3536
32.3683
32.3824
32.396
32.4092
32.4219
32.4341
32.4457
32.4569
32.4676
32.4778
32.4875
32.4967
32.5054
32.5135
32.5212
32.5284
32.535
32.5412
32.5468
32.5519
32.5566
32.5607
32.5643
32.5673
32.5699
32.572
32.5735
32.5745
32.575
44.9596
44.9515
44.9353
44.9117
44.8812
44.8444
44.8017
44.7536
44.7003
44.642
44.5789
44.5112
44.4388
44.3619
44.2806
44.1949
44.105
44.0109
43.9127
43.8105
43.7043
43.5944
43.4808
43.3636
43.2428
43.1186
42.9911
42.8604
42.7266
42.5899
42.4502
42.3077
42.1626
42.015
41.8649
41.7124
41.5578
41.4011
41.2424
41.0818
40.9194
40.7554
40.5899
40.423
40.2547
40.0852
39.9146
39.7431
39.5706
39.3974
39.2234
39.0489
38.874
38.6986
38.523
38.3472
38.1713
37.9955
37.8197
37.6442
37.4689
37.294
37.1195
36.9457
36.7724
36.5998
36.428
36.2571
36.0871
35.9182
35.7503
35.5835
35.418
35.2538
35.0909
34.9294
34.7693
34.6108
34.4539
34.2986
34.145
33.9931
33.8429
33.6946
33.5482
33.4036
33.261
33.1204
32.9818
32.8452
32.7107
32.5783
32.448
32.3199
32.1939
32.0702
31.9487
31.8294
31.7123
31.5976
31.4851
31.3749
31.267
31.1614
31.0581
30.9571
30.8585
30.7622
30.6682
30.5766
30.4872
30.4002
30.3155
30.2331
30.153
30.0752
29.9997
29.9265
29.8555
29.7868
29.7203
29.656
29.594
29.5341
29.4764
29.4208
29.3674
29.3161
29.2669
29.2198
29.1748
29.1317
29.0907
29.0517
29.0146
28.9795
28.9463
28.915
28.8855
28.8579
28.8321
28.8082
28.7859
28.7654
28.7466
28.7295
28.7141
28.7003
28.6881
28.6774
28.6683
28.6607
28.6546
28.65
28.6468
28.645
28.6446
28.6455
28.6477
28.6512
28.656
28.6621
28.6693
28.6777
28.6873
28.698
28.7098
28.7226
28.7365
28.7514
28.7674
28.7842
28.802
28.8208
28.8404
28.8608
28.8821
28.9042
28.9271
28.9508
28.9752
29.0003
29.0261
29.0525
29.0796
29.1073
29.1356
29.1645
29.1939
29.2239
29.2544
29.2853
29.3167
29.3486
29.3808
29.4135
29.4466
29.48
29.5138
29.5479
29.5823
29.617
29.6519
29.6871
29.7226
29.7582
29.7941
29.8301
29.8663
29.9026
29.9391
29.9757
30.0124
30.0492
30.0861
30.123
30.16
30.197
30.234
30.271
30.308
30.345
30.3819
30.4188
30.4556
30.4924
30.529
30.5656
30.6021
30.6384
30.6746
30.7107
30.7466
30.7823
30.8179
30.8533
30.8885
30.9235
30.9583
30.9929
31.0272
31.0613
31.0952
31.1288
31.1621
31.1952
31.228
31.2605
31.2927
31.3246
31.3562
31.3875
31.4184
31.4491
31.4794
31.5093
31.5389
31.5682
31.5971
31.6256
31.6538
31.6816
31.709
31.736
31.7627
31.7889
31.8147
31.8402
31.8652
31.8898
31.914
31.9378
31.9611
31.984
32.0065
32.0285
32.0501
32.0713
32.092
32.1123
32.1321
32.1514
32.1703
32.1887
32.2067
32.2241
32.2412
32.2577
32.2738
32.2893
32.3044
32.3191
32.3332
32.3468
32.36
32.3726
32.3848
32.3965
32.4077
32.4183
32.4285
32.4382
32.4474
32.4561
32.4642
32.4719
32.4791
32.4857
32.4919
32.4975
32.5026
32.5072
32.5113
32.5149
32.518
32.5206
32.5226
32.5242
32.5252
32.5257
44.9267
44.9188
44.9028
44.8796
44.8493
44.8128
44.7703
44.7224
44.669
44.6107
44.5475
44.4795
44.4069
44.3298
44.2482
44.1623
44.0721
43.9777
43.8792
43.7767
43.6704
43.5602
43.4464
43.3289
43.2079
43.0835
42.9558
42.8249
42.6909
42.5539
42.414
42.2714
42.1261
41.9783
41.828
41.6754
41.5206
41.3638
41.2049
41.0442
40.8817
40.7176
40.5519
40.3848
40.2164
40.0468
39.8761
39.7044
39.5319
39.3585
39.1845
39.0099
38.8349
38.6595
38.4838
38.3079
38.132
37.956
37.7802
37.6046
37.4293
37.2543
37.0798
36.9059
36.7326
36.56
36.3882
36.2172
36.0472
35.8783
35.7104
35.5436
35.3781
35.2139
35.051
34.8895
34.7295
34.571
34.4141
34.2588
34.1052
33.9533
33.8032
33.6549
33.5085
33.364
33.2215
33.0809
32.9423
32.8058
32.6714
32.539
32.4088
32.2808
32.1549
32.0312
31.9098
31.7906
31.6736
31.5589
31.4465
31.3364
31.2286
31.1231
31.0199
30.9191
30.8205
30.7243
30.6304
30.5389
30.4497
30.3628
30.2782
30.1959
30.1159
30.0382
29.9628
29.8897
29.8189
29.7502
29.6839
29.6197
29.5578
29.498
29.4404
29.385
29.3317
29.2806
29.2315
29.1845
29.1396
29.0967
29.0558
29.0169
28.9799
28.9449
28.9118
28.8806
28.8513
28.8238
28.7982
28.7743
28.7522
28.7318
28.7132
28.6962
28.6808
28.6671
28.655
28.6445
28.6355
28.6281
28.6221
28.6175
28.6144
28.6128
28.6124
28.6135
28.6158
28.6194
28.6243
28.6305
28.6378
28.6463
28.656
28.6668
28.6787
28.6916
28.7056
28.7207
28.7367
28.7536
28.7715
28.7903
28.81
28.8306
28.852
28.8742
28.8972
28.9209
28.9454
28.9705
28.9964
29.0229
29.0501
29.0779
29.1063
29.1352
29.1647
29.1948
29.2253
29.2563
29.2878
29.3197
29.3521
29.3848
29.4179
29.4514
29.4852
29.5194
29.5539
29.5886
29.6236
29.6589
29.6944
29.7301
29.766
29.8021
29.8383
29.8747
29.9112
29.9479
29.9846
30.0215
30.0584
30.0953
30.1323
30.1694
30.2064
30.2435
30.2805
30.3175
30.3545
30.3914
30.4283
30.4651
30.5018
30.5384
30.5749
30.6112
30.6475
30.6836
30.7195
30.7553
30.7909
30.8263
30.8615
30.8966
30.9314
30.966
31.0003
31.0344
31.0683
31.1019
31.1353
31.1684
31.2012
31.2337
31.2659
31.2979
31.3295
31.3608
31.3918
31.4224
31.4527
31.4827
31.5123
31.5416
31.5705
31.5991
31.6273
31.6551
31.6825
31.7095
31.7362
31.7624
31.7883
31.8137
31.8387
31.8634
31.8876
31.9113
31.9347
31.9576
31.9801
32.0021
32.0237
32.0449
32.0656
32.0859
32.1057
32.125
32.1439
32.1624
32.1803
32.1978
32.2148
32.2314
32.2474
32.263
32.2781
32.2927
32.3069
32.3205
32.3337
32.3463
32.3585
32.3702
32.3814
32.3921
32.4022
32.4119
32.4211
32.4298
32.438
32.4456
32.4528
32.4594
32.4656
32.4712
32.4763
32.481
32.4851
32.4887
32.4917
32.4943
32.4964
32.4979
32.4989
32.4994
44.873
44.8651
44.849
44.8257
44.7953
44.7586
44.7157
44.6673
44.6136
44.5548
44.4911
44.4227
44.3496
44.2721
44.1901
44.1037
44.0132
43.9185
43.8197
43.7169
43.6103
43.4999
43.3858
43.2681
43.1469
43.0223
42.8944
42.7633
42.6291
42.492
42.352
42.2092
42.0638
41.9158
41.7654
41.6127
41.4578
41.3008
41.1419
40.981
40.8185
40.6543
40.4885
40.3214
40.1529
39.9833
39.8125
39.6408
39.4682
39.2948
39.1208
38.9462
38.7711
38.5957
38.42
38.2441
38.0682
37.8923
37.7165
37.5409
37.3656
37.1906
37.0162
36.8423
36.669
36.4965
36.3247
36.1539
35.9839
35.815
35.6472
35.4805
35.3151
35.1509
34.9881
34.8267
34.6668
34.5084
34.3516
34.1964
34.0429
33.8911
33.7412
33.593
33.4467
33.3023
33.1599
33.0195
32.881
32.7446
32.6103
32.4781
32.3481
32.2202
32.0944
31.9709
31.8496
31.7306
31.6138
31.4992
31.387
31.2771
31.1694
31.0641
30.9611
30.8604
30.762
30.666
30.5722
30.4809
30.3918
30.3051
30.2206
30.1385
30.0587
29.9812
29.906
29.833
29.7623
29.6939
29.6277
29.5637
29.502
29.4424
29.385
29.3297
29.2766
29.2256
29.1767
29.1299
29.0851
29.0424
29.0016
28.9629
28.9261
28.8913
28.8583
28.8273
28.7982
28.7708
28.7453
28.7216
28.6996
28.6794
28.6609
28.6441
28.6289
28.6153
28.6034
28.593
28.5841
28.5768
28.571
28.5666
28.5636
28.5621
28.5619
28.563
28.5655
28.5693
28.5743
28.5805
28.588
28.5966
28.6064
28.6173
28.6293
28.6424
28.6565
28.6716
28.6877
28.7048
28.7228
28.7417
28.7615
28.7822
28.8036
28.8259
28.849
28.8728
28.8974
28.9227
28.9486
28.9752
29.0025
29.0303
29.0588
29.0878
29.1174
29.1475
29.1781
29.2092
29.2407
29.2727
29.3051
29.3379
29.3711
29.4047
29.4385
29.4728
29.5073
29.5421
29.5771
29.6124
29.648
29.6837
29.7197
29.7558
29.7921
29.8285
29.8651
29.9018
29.9386
29.9755
30.0124
30.0494
30.0864
30.1235
30.1606
30.1977
30.2347
30.2718
30.3088
30.3457
30.3826
30.4194
30.4561
30.4928
30.5293
30.5657
30.6019
30.638
30.674
30.7098
30.7454
30.7808
30.8161
30.8511
30.8859
30.9205
30.9549
30.9891
31.0229
31.0566
31.0899
31.123
31.1559
31.1884
31.2206
31.2525
31.2842
31.3155
31.3465
31.3771
31.4074
31.4374
31.467
31.4963
31.5252
31.5538
31.582
31.6098
31.6372
31.6642
31.6909
31.7171
31.743
31.7684
31.7935
31.8181
31.8423
31.8661
31.8894
31.9123
31.9348
31.9569
31.9785
31.9996
32.0203
32.0406
32.0604
32.0798
32.0986
32.1171
32.135
32.1525
32.1695
32.1861
32.2021
32.2177
32.2328
32.2474
32.2616
32.2752
32.2884
32.301
32.3132
32.3249
32.336
32.3467
32.3569
32.3666
32.3758
32.3844
32.3926
32.4003
32.4074
32.4141
32.4202
32.4259
32.431
32.4356
32.4397
32.4433
32.4464
32.449
32.451
32.4526
32.4536
32.4541
44.8358
44.828
44.8122
44.7891
44.759
44.7225
44.6799
44.6316
44.5779
44.519
44.4551
44.3865
44.3132
44.2353
44.153
44.0664
43.9755
43.8804
43.7813
43.6782
43.5713
43.4605
43.3461
43.2281
43.1066
42.9817
42.8535
42.7222
42.5877
42.4503
42.31
42.167
42.0213
41.8731
41.7224
41.5695
41.4144
41.2572
41.098
40.9369
40.7742
40.6098
40.4438
40.2765
40.1079
39.938
39.7671
39.5952
39.4225
39.2489
39.0747
38.9
38.7248
38.5492
38.3734
38.1974
38.0213
37.8453
37.6694
37.4937
37.3183
37.1433
36.9688
36.7948
36.6215
36.4489
36.2771
36.1061
35.9361
35.7672
35.5993
35.4326
35.2671
35.103
34.9401
34.7787
34.6188
34.4604
34.3036
34.1484
33.995
33.8432
33.6933
33.5452
33.3989
33.2546
33.1122
32.9718
32.8334
32.6971
32.5628
32.4307
32.3007
32.1729
32.0473
31.9238
31.8026
31.6837
31.5669
31.4525
31.3404
31.2305
31.123
31.0178
30.9149
30.8143
30.716
30.6201
30.5265
30.4353
30.3464
30.2598
30.1755
30.0935
30.0138
29.9365
29.8614
29.7886
29.718
29.6498
29.5837
29.5199
29.4583
29.3988
29.3416
29.2865
29.2335
29.1827
29.1339
29.0872
29.0426
29
28.9595
28.9209
28.8843
28.8496
28.8168
28.786
28.757
28.7298
28.7045
28.6809
28.6591
28.639
28.6207
28.604
28.589
28.5756
28.5638
28.5535
28.5448
28.5377
28.532
28.5277
28.5249
28.5235
28.5235
28.5248
28.5274
28.5313
28.5365
28.5429
28.5505
28.5592
28.5692
28.5802
28.5923
28.6055
28.6198
28.635
28.6513
28.6685
28.6866
28.7056
28.7255
28.7463
28.7679
28.7903
28.8135
28.8375
28.8621
28.8875
28.9136
28.9403
28.9677
28.9956
29.0242
29.0533
29.083
29.1132
29.1439
29.1751
29.2067
29.2388
29.2713
29.3042
29.3375
29.3711
29.4051
29.4394
29.474
29.5088
29.544
29.5794
29.615
29.6508
29.6868
29.723
29.7594
29.7959
29.8326
29.8693
29.9062
29.9431
29.9801
30.0172
30.0543
30.0914
30.1285
30.1657
30.2028
30.2399
30.2769
30.3139
30.3509
30.3877
30.4245
30.4612
30.4977
30.5342
30.5705
30.6066
30.6426
30.6785
30.7141
30.7496
30.7849
30.82
30.8548
30.8895
30.9239
30.9581
30.992
31.0256
31.059
31.0922
31.125
31.1576
31.1898
31.2218
31.2534
31.2848
31.3158
31.3465
31.3768
31.4068
31.4365
31.4658
31.4947
31.5233
31.5515
31.5793
31.6068
31.6338
31.6605
31.6867
31.7126
31.7381
31.7631
31.7878
31.812
31.8358
31.8591
31.8821
31.9046
31.9266
31.9482
31.9694
31.9901
32.0104
32.0302
32.0496
32.0685
32.0869
32.1049
32.1224
32.1394
32.1559
32.172
32.1876
32.2027
32.2173
32.2315
32.2451
32.2583
32.271
32.2831
32.2948
32.306
32.3167
32.3269
32.3366
32.3457
32.3544
32.3626
32.3703
32.3774
32.3841
32.3902
32.3959
32.401
32.4056
32.4097
32.4133
32.4164
32.419
32.421
32.4226
32.4236
32.4241
44.7844
44.7767
44.7609
44.7379
44.7078
44.6713
44.6285
44.58
44.526
44.4668
44.4025
44.3335
44.2598
44.1815
44.0987
44.0117
43.9204
43.8249
43.7255
43.622
43.5147
43.4036
43.2889
43.1706
43.0488
42.9236
42.7951
42.6634
42.5287
42.391
42.2505
42.1072
41.9613
41.8128
41.6619
41.5088
41.3534
41.196
41.0367
40.8754
40.7125
40.5479
40.3818
40.2143
40.0455
39.8755
39.7045
39.5324
39.3595
39.1859
39.0116
38.8367
38.6614
38.4858
38.3098
38.1338
37.9576
37.7815
37.6056
37.4298
37.2544
37.0793
36.9047
36.7307
36.5574
36.3848
36.2129
36.042
35.872
35.703
35.5352
35.3685
35.2031
35.0389
34.8761
34.7148
34.5549
34.3965
34.2398
34.0847
33.9313
33.7796
33.6297
33.4817
33.3355
33.1913
33.049
32.9087
32.7704
32.6342
32.5001
32.3681
32.2382
32.1105
31.985
31.8617
31.7406
31.6218
31.5052
31.3909
31.279
31.1693
31.0619
30.9568
30.8541
30.7537
30.6556
30.5598
30.4664
30.3753
30.2866
30.2002
30.116
30.0343
29.9548
29.8776
29.8027
29.7301
29.6597
29.5916
29.5258
29.4621
29.4007
29.3414
29.2844
29.2295
29.1767
29.1261
29.0775
29.031
28.9866
28.9442
28.9038
28.8654
28.829
28.7945
28.762
28.7313
28.7025
28.6755
28.6503
28.627
28.6053
28.5855
28.5673
28.5508
28.536
28.5227
28.5111
28.5011
28.4925
28.4855
28.48
28.4759
28.4733
28.4721
28.4722
28.4737
28.4764
28.4805
28.4858
28.4924
28.5002
28.5091
28.5192
28.5304
28.5426
28.556
28.5704
28.5858
28.6022
28.6195
28.6378
28.6569
28.677
28.6979
28.7196
28.7422
28.7655
28.7895
28.8143
28.8398
28.866
28.8929
28.9203
28.9484
28.9771
29.0063
29.0361
29.0664
29.0972
29.1285
29.1602
29.1924
29.225
29.258
29.2914
29.3251
29.3592
29.3935
29.4282
29.4632
29.4984
29.5339
29.5696
29.6055
29.6416
29.6778
29.7143
29.7509
29.7876
29.8244
29.8613
29.8983
29.9354
29.9725
30.0097
30.0468
30.084
30.1212
30.1584
30.1956
30.2327
30.2697
30.3067
30.3436
30.3804
30.4171
30.4537
30.4902
30.5266
30.5628
30.5988
30.6347
30.6704
30.7059
30.7412
30.7763
30.8112
30.8459
30.8803
30.9145
30.9485
30.9822
31.0156
31.0488
31.0816
31.1142
31.1465
31.1785
31.2102
31.2415
31.2725
31.3032
31.3336
31.3636
31.3933
31.4226
31.4516
31.4802
31.5084
31.5362
31.5637
31.5908
31.6174
31.6437
31.6696
31.6951
31.7201
31.7448
31.769
31.7928
31.8162
31.8391
31.8616
31.8837
31.9053
31.9265
31.9472
31.9675
31.9873
32.0067
32.0256
32.044
32.062
32.0795
32.0966
32.1131
32.1292
32.1448
32.1599
32.1745
32.1887
32.2023
32.2155
32.2282
32.2403
32.252
32.2632
32.2739
32.2841
32.2938
32.303
32.3116
32.3198
32.3275
32.3347
32.3413
32.3475
32.3531
32.3582
32.3629
32.367
32.3706
32.3736
32.3762
32.3783
32.3798
32.3808
32.3813
44.7446
44.7369
44.7213
44.6985
44.6687
44.6323
44.5896
44.5412
44.4871
44.4278
44.3634
44.2941
44.2201
44.1415
44.0584
43.971
43.8793
43.7835
43.6836
43.5798
43.4721
43.3606
43.2455
43.1268
43.0046
42.879
42.7501
42.6181
42.483
42.345
42.2041
42.0605
41.9142
41.7654
41.6143
41.4608
41.3051
41.1474
40.9878
40.8263
40.663
40.4982
40.3318
40.164
39.995
39.8248
39.6535
39.4812
39.3081
39.1342
38.9597
38.7846
38.6091
38.4333
38.2572
38.0809
37.9046
37.7284
37.5523
37.3764
37.2008
37.0256
36.8509
36.6768
36.5033
36.3306
36.1586
35.9876
35.8176
35.6485
35.4806
35.3139
35.1484
34.9842
34.8213
34.6599
34.5
34.3417
34.1849
34.0298
33.8764
33.7247
33.5749
33.4269
33.2807
33.1365
32.9943
32.854
32.7158
32.5796
32.4456
32.3136
32.1838
32.0562
31.9308
31.8076
31.6866
31.5679
31.4514
31.3372
31.2254
31.1158
31.0085
30.9036
30.801
30.7007
30.6028
30.5071
30.4139
30.3229
30.2343
30.1481
30.0641
29.9825
29.9032
29.8262
29.7514
29.679
29.6088
29.5409
29.4752
29.4117
29.3505
29.2914
29.2346
29.1798
29.1272
29.0768
29.0284
28.9821
28.9379
28.8957
28.8555
28.8173
28.7811
28.7468
28.7144
28.6839
28.6553
28.6286
28.6036
28.5804
28.559
28.5393
28.5213
28.505
28.4904
28.4774
28.4659
28.4561
28.4477
28.4409
28.4356
28.4317
28.4293
28.4282
28.4285
28.4302
28.4331
28.4374
28.4429
28.4496
28.4576
28.4667
28.4769
28.4883
28.5007
28.5143
28.5288
28.5444
28.5609
28.5784
28.5969
28.6162
28.6364
28.6575
28.6793
28.702
28.7255
28.7497
28.7746
28.8003
28.8266
28.8536
28.8812
28.9094
28.9382
28.9676
28.9975
29.028
29.0589
29.0903
29.1222
29.1545
29.1872
29.2203
29.2538
29.2876
29.3218
29.3563
29.3911
29.4261
29.4615
29.497
29.5328
29.5688
29.605
29.6414
29.6779
29.7146
29.7514
29.7883
29.8253
29.8624
29.8996
29.9368
29.974
30.0113
30.0486
30.0858
30.1231
30.1603
30.1975
30.2346
30.2717
30.3087
30.3455
30.3823
30.419
30.4555
30.4919
30.5282
30.5643
30.6002
30.636
30.6716
30.7069
30.7421
30.777
30.8118
30.8462
30.8805
30.9145
30.9482
30.9817
31.0149
31.0478
31.0804
31.1128
31.1448
31.1765
31.2079
31.239
31.2697
31.3001
31.3302
31.3599
31.3892
31.4182
31.4468
31.4751
31.503
31.5304
31.5575
31.5842
31.6106
31.6365
31.662
31.687
31.7117
31.736
31.7598
31.7832
31.8061
31.8287
31.8508
31.8724
31.8936
31.9144
31.9347
31.9545
31.9739
31.9928
32.0113
32.0292
32.0468
32.0638
32.0804
32.0965
32.1121
32.1272
32.1418
32.156
32.1696
32.1828
32.1955
32.2077
32.2194
32.2306
32.2413
32.2515
32.2612
32.2704
32.2791
32.2872
32.2949
32.3021
32.3087
32.3149
32.3205
32.3257
32.3303
32.3344
32.338
32.3411
32.3437
32.3457
32.3473
32.3483
32.3488
44.6952
44.6875
44.672
44.6493
44.6195
44.5831
44.5404
44.4918
44.4375
44.3779
44.3132
44.2435
44.1691
44.09
44.0065
43.9187
43.8265
43.7303
43.63
43.5257
43.4176
43.3057
43.1902
43.071
42.9485
42.8225
42.6933
42.5609
42.4254
42.287
42.1458
42.0018
41.8552
41.7061
41.5546
41.4008
41.2448
41.0868
40.9269
40.7651
40.6016
40.4364
40.2698
40.1018
39.9325
39.762
39.5905
39.418
39.2447
39.0706
38.8959
38.7207
38.545
38.3689
38.1927
38.0163
37.8398
37.6634
37.4871
37.3111
37.1354
36.9601
36.7853
36.6111
36.4375
36.2647
36.0927
35.9216
35.7515
35.5824
35.4145
35.2477
35.0821
34.9179
34.7551
34.5937
34.4338
34.2754
34.1187
33.9636
33.8102
33.6586
33.5088
33.3608
33.2148
33.0706
32.9284
32.7882
32.6501
32.514
32.3801
32.2482
32.1185
31.991
31.8657
31.7426
31.6217
31.5032
31.3868
31.2728
31.1611
31.0516
30.9445
30.8398
30.7373
30.6372
30.5394
30.444
30.3509
30.2602
30.1717
30.0857
30.0019
29.9205
29.8413
29.7645
29.69
29.6177
29.5478
29.48
29.4146
29.3513
29.2903
29.2315
29.1748
29.1203
29.0679
29.0177
28.9695
28.9235
28.8794
28.8375
28.7975
28.7595
28.7235
28.6895
28.6573
28.627
28.5986
28.5721
28.5473
28.5244
28.5032
28.4837
28.466
28.4499
28.4355
28.4226
28.4114
28.4018
28.3937
28.3871
28.3819
28.3783
28.376
28.3752
28.3757
28.3776
28.3807
28.3852
28.3909
28.3978
28.4059
28.4152
28.4257
28.4372
28.4499
28.4636