/*--------------------------------*- C++ -*----------------------------------*\
| =========                 |                                                 |
| \\      /  F ield         | OpenFOAM: The Open Source CFD Toolbox           |
|  \\    /   O peration     | Version:  2212                                  |
|   \\  /    A nd           | Website:  www.openfoam.com                      |
|    \\/     M anipulation  |                                                 |
\*---------------------------------------------------------------------------*/
FoamFile
{
    version     2.0;
    format      ascii;
    arch        "LSB;label=32;scalar=64";
    class       surfaceScalarField;
    location    "600";
    object      phi;
}
// * * * * * * * * * * * * * * * * * * * * * * * * * * * * * * * * * * * * * //

dimensions      [1 0 -1 0 0 0 0];

oriented        oriented;

internalField   nonuniform List<scalar> 
408640
(
-1504.68
1507.06
-2971.3
1467
-4362.6
1391.74
-5658.29
1296.15
-6854.98
1197.15
-7961.77
1107.27
-8995.37
1034.08
-9974.55
979.674
-10916.6
942.561
-11835.4
919.248
-12740.7
905.827
-13639
898.784
-14533.9
895.409
-15427.2
893.805
-16319.5
892.772
-17210.6
891.613
-18100.1
889.971
-18987.3
887.698
-19871.6
884.764
-20752.3
881.197
-21628.9
877.05
-22500.8
872.382
-23367.6
867.251
-24228.8
861.707
-25084.1
855.793
-25933.2
849.546
-26775.7
842.997
-27611.5
836.171
-28440.1
829.09
-29261.4
821.773
-30075.2
814.236
-30881.3
806.493
-31679.4
798.557
-32469.4
790.439
-33251.1
782.149
-34024.4
773.696
-34789
765.088
-35545
756.334
-36292
747.44
-37030
738.414
-37758.9
729.261
-38478.5
719.989
-39188.7
710.602
-39889.4
701.107
-40580.5
691.509
-41262
681.813
-41933.6
672.025
-42595.4
662.15
-43247.2
652.192
-43889
642.156
-44520.7
632.047
-45142.3
621.87
-45753.6
611.628
-46354.6
601.328
-46945.2
590.972
-47525.5
580.565
-48095.3
570.112
-48654.6
559.617
-49203.3
549.083
-49741.6
538.515
-50269.2
527.917
-50786.2
517.292
-51292.6
506.646
-51788.3
495.98
-52273.3
485.3
-52747.6
474.609
-53211.3
463.911
-53664.2
453.209
-54106.5
442.507
-54538.1
431.808
-54959
421.115
-55369.2
410.433
-55768.7
399.765
-56157.6
389.113
-56535.9
378.481
-56903.5
367.871
-57260.6
357.289
-57607.2
346.735
-57943.2
336.213
-58268.7
325.726
-58583.8
315.278
-58888.5
304.869
-59182.9
294.504
-59466.9
284.185
-59740.7
273.915
-60004.2
263.695
-60257.6
253.529
-60500.9
243.419
-60734.1
233.367
-60957.4
223.376
-61170.7
213.447
-61374.2
203.583
-61567.9
193.785
-61751.8
184.057
-61926.1
174.398
-62090.9
164.813
-62246.1
155.302
-62391.9
145.867
-62528.3
136.509
-62655.5
127.231
-62773.4
118.033
-62882.3
108.918
-62982.2
99.8863
-63073.1
90.9396
-63155.1
82.0791
-63228.4
73.306
-63293
64.6214
-63349
56.0265
-63396.5
47.5223
-63435.6
39.1096
-63466.4
30.7894
-63488.9
22.5625
-63503.4
14.4298
-63509.8
6.3918
-63508.3
-1.55069
-63498.9
-9.39712
-63481.8
-17.1469
-63457
-24.7996
-63424.7
-32.3547
-63384.9
-39.8119
-63337.8
-47.1709
-63283.5
-54.4313
-63221.9
-61.5928
-63153.3
-68.6555
-63077.8
-75.619
-62995.4
-82.4833
-62906.2
-89.2483
-62810.4
-95.9142
-62708
-102.481
-62599.2
-108.948
-62484
-115.317
-62362.5
-121.587
-62234.9
-127.758
-62101.2
-133.831
-61961.5
-139.805
-61815.9
-145.682
-61664.6
-151.462
-61507.6
-157.145
-61345
-162.731
-61177
-168.221
-61003.5
-173.615
-60824.8
-178.914
-60640.8
-184.119
-60451.7
-189.229
-60257.7
-194.247
-60058.7
-199.171
-59854.9
-204.004
-59646.3
-208.745
-59433.1
-213.395
-59215.4
-217.955
-58993.1
-222.426
-58766.5
-226.809
-58535.6
-231.104
-58300.5
-235.311
-58061.3
-239.433
-57818.1
-243.47
-57570.9
-247.422
-57319.8
-251.29
-57065
-255.076
-56806.5
-258.78
-56544.3
-262.403
-56278.6
-265.946
-56009.5
-269.41
-55736.9
-272.795
-55461.1
-276.104
-55182
-279.336
-54899.8
-282.493
-54614.5
-285.575
-54326.2
-288.585
-54034.9
-291.521
-53740.8
-294.386
-53443.9
-297.181
-53144.3
-299.907
-52842
-302.563
-52537.2
-305.153
-52229.8
-307.675
-51920
-310.132
-51607.8
-312.525
-51293.2
-314.854
-50976.4
-317.121
-50657.4
-319.326
-50336.2
-321.47
-50013
-323.555
-49687.7
-325.581
-49360.5
-327.549
-49031.4
-329.461
-48700.4
-331.317
-48367.6
-333.119
-48033.1
-334.866
-47696.9
-336.561
-47359
-338.204
-47019.5
-339.796
-46678.6
-341.338
-46336.1
-342.832
-45992.1
-344.277
-45646.8
-345.675
-45300.1
-347.026
-44952.2
-348.333
-44602.9
-349.595
-44252.5
-350.813
-43900.9
-351.989
-43548.1
-353.123
-43194.2
-354.217
-42839.3
-355.27
-42483.4
-356.284
-42126.5
-357.26
-41768.7
-358.199
-41410
-359.101
-41050.4
-359.967
-40690
-360.798
-40328.7
-361.596
-39966.8
-362.359
-39604
-363.091
-39240.6
-363.79
-38876.6
-364.459
-38511.8
-365.097
-38146.5
-365.706
-37780.6
-366.286
-37414.2
-366.838
-37047.2
-367.362
-36679.7
-367.861
-36311.8
-368.333
-35943.4
-368.78
-35574.6
-369.203
-35205.3
-369.602
-34835.8
-369.978
-34465.8
-370.331
-34095.5
-370.663
-33725
-370.973
-33354.1
-371.263
-32983
-371.533
-32611.6
-371.784
-32239.9
-372.015
-31868.1
-372.229
-31496.1
-372.426
-31123.9
-372.605
-30751.5
-372.768
-30379
-372.915
-30006.3
-373.047
-29633.5
-373.164
-29260.7
-373.267
-28887.7
-373.356
-28514.7
-373.432
-28141.6
-373.495
-27768.4
-373.546
-27395.2
-373.586
-27022
-373.614
-26648.7
-373.631
-26275.5
-373.639
-25902.2
-373.636
-25529
-373.624
-25155.8
-373.603
-24782.6
-373.573
-24409.5
-373.535
-24036.4
-373.489
-23663.3
-373.437
-23290.3
-373.377
-22917.4
-373.31
-22544.6
-373.238
-22171.8
-373.16
-21799.1
-373.076
-21426.5
-372.987
-21054
-372.893
-20681.6
-372.795
-20309.3
-372.693
-19937.1
-372.587
-19565
-372.478
-19193
-372.366
-18821.1
-372.251
-18449.4
-372.133
-18077.7
-372.013
-17706.2
-371.891
-17334.8
-371.767
-16963.6
-371.642
-16592.4
-371.516
-16221.4
-371.389
-15850.5
-371.262
-15479.8
-371.134
-15109.1
-371.005
-14738.6
-370.877
-14368.3
-370.749
-13998
-370.622
-13627.9
-370.495
-13257.9
-370.37
-12888
-370.245
-12518.3
-370.122
-12148.6
-370
-11779.1
-369.88
-11409.7
-369.762
-11040.5
-369.646
-10671.3
-369.532
-10302.2
-369.42
-9933.3
-369.311
-9564.47
-369.204
-9195.73
-369.1
-8827.1
-369
-8458.56
-368.902
-8090.12
-368.807
-7721.77
-368.716
-7353.5
-368.629
-6985.32
-368.544
-6617.22
-368.464
-6249.2
-368.388
-5881.25
-368.316
-5513.36
-368.248
-5145.54
-368.184
-4777.78
-368.125
-4410.07
-368.07
-4042.41
-368.021
-3674.79
-367.976
-3307.22
-367.936
-2939.68
-367.902
-2572.16
-367.872
-2204.68
-367.848
-1837.21
-367.829
-1469.75
-367.815
-1102.31
-367.805
-734.871
-367.799
-367.435
-367.796
-367.795
-1480.48
2987.92
-2925.09
2912.02
-4300.86
2767.95
-5588.8
2584.54
-6784.58
2393.39
-7895.61
2218.77
-8936.48
2075.43
-9924.15
1967.84
-10874.6
1893.5
-11800.8
1845.98
-12712.4
1817.89
-13615.6
1802.51
-14514.3
1794.58
-15410.4
1790.37
-16304.6
1787.5
-17197.1
1784.56
-18087.4
1780.81
-18975.1
1775.91
-19859.7
1769.77
-20740.4
1762.44
-21616.9
1754
-22488.6
1744.55
-23355.1
1734.2
-24215.9
1723.04
-25070.8
1711.16
-25919.4
1698.62
-26761.5
1685.49
-27596.6
1671.81
-28424.7
1657.63
-29245.5
1642.97
-30058.7
1627.89
-30864.1
1612.39
-31661.7
1596.51
-32451
1580.26
-33232.1
1563.67
-34004.8
1546.76
-34768.8
1529.54
-35524.1
1512.03
-36270.5
1494.24
-37007.9
1476.18
-37736.1
1457.88
-38455
1439.33
-39164.6
1420.56
-39864.7
1401.57
-40555.2
1382.37
-41236
1362.98
-41907
1343.41
-42568.1
1323.66
-43219.3
1303.74
-43860.5
1283.68
-44491.6
1263.46
-45112.5
1243.11
-45723.1
1222.63
-46323.5
1202.03
-46913.5
1181.32
-47493.2
1160.51
-48062.3
1139.61
-48621
1118.62
-49169.2
1097.56
-49706.8
1076.43
-50233.9
1055.24
-50750.3
1033.99
-51256
1012.71
-51751.2
991.38
-52235.6
970.025
-52709.4
948.649
-53172.5
927.258
-53624.9
905.859
-54066.6
884.46
-54497.6
863.068
-54918
841.69
-55327.6
820.332
-55726.6
799.001
-56115
777.704
-56492.8
756.446
-56859.9
735.235
-57216.5
714.076
-57562.6
692.975
-57898.1
671.939
-58223.2
650.973
-58537.8
630.082
-58842
609.273
-59135.9
588.551
-59419.5
567.92
-59692.8
547.387
-59955.9
526.956
-60208.9
506.632
-60451.8
486.419
-60684.6
466.323
-60907.4
446.348
-61120.4
426.498
-61323.5
406.778
-61516.8
387.191
-61700.4
367.742
-61874.3
348.434
-62038.7
329.271
-62193.5
310.257
-62339
291.395
-62475.1
272.689
-62601.9
254.14
-62719.6
235.754
-62828.2
217.532
-62927.7
199.477
-63018.3
181.592
-63100.1
163.88
-63173.1
146.342
-63237.4
128.981
-63293.2
111.8
-63340.5
94.8001
-63379.3
77.9834
-63409.9
61.3515
-63432.2
44.9064
-63446.5
28.6494
-63452.7
12.582
-63451
-3.29449
-63441.4
-18.9788
-63424.1
-34.4699
-63399.2
-49.7669
-63366.7
-64.8687
-63326.8
-79.7747
-63279.5
-94.4841
-63225
-108.997
-63163.4
-123.311
-63094.7
-137.428
-63019
-151.347
-62936.5
-165.067
-62847.3
-178.589
-62751.4
-191.913
-62648.9
-205.038
-62540
-217.965
-62424.7
-230.694
-62303.2
-243.226
-62175.5
-255.56
-62041.8
-267.698
-61902.1
-279.64
-61756.5
-291.386
-61605.1
-302.938
-61448.1
-314.295
-61285.6
-325.46
-61117.5
-336.432
-60944.1
-347.213
-60765.3
-357.805
-60581.4
-368.207
-60392.4
-378.421
-60198.4
-388.448
-59999.4
-398.29
-59795.7
-407.948
-59587.2
-417.423
-59374
-426.717
-59156.4
-435.831
-58934.2
-444.766
-58707.7
-453.524
-58476.9
-462.107
-58241.9
-470.517
-58002.8
-478.754
-57759.7
-486.82
-57512.7
-494.718
-57261.7
-502.449
-57007
-510.014
-56748.6
-517.416
-56486.6
-524.656
-56221.1
-531.736
-55952.1
-538.658
-55679.7
-545.424
-55404
-552.035
-55125.1
-558.494
-54843.1
-564.802
-54558
-570.962
-54269.9
-576.975
-53978.8
-582.843
-53684.9
-588.569
-53388.2
-594.153
-53088.8
-599.599
-52786.8
-604.907
-52482.2
-610.081
-52175
-615.122
-51865.4
-620.031
-51553.4
-624.812
-51239.1
-629.466
-50922.6
-633.994
-50603.8
-638.4
-50282.9
-642.684
-49959.9
-646.849
-49634.9
-650.898
-49308
-654.83
-48979.1
-658.65
-48648.4
-662.358
-48315.9
-665.957
-47981.7
-669.449
-47645.7
-672.835
-47308.2
-676.117
-46969
-679.298
-46628.3
-682.379
-46286.1
-685.362
-45942.5
-688.249
-45597.5
-691.041
-45251.1
-693.741
-44903.5
-696.351
-44554.5
-698.872
-44204.4
-701.306
-43853.1
-703.655
-43500.7
-705.921
-43147.1
-708.104
-42792.6
-710.208
-42437
-712.234
-42080.4
-714.184
-41722.9
-716.058
-41364.6
-717.859
-41005.3
-719.589
-40645.2
-721.25
-40284.4
-722.841
-39922.7
-724.367
-39560.4
-725.827
-39197.3
-727.224
-38833.6
-728.558
-38469.2
-729.833
-38104.3
-731.048
-37738.7
-732.206
-37372.7
-733.309
-37006
-734.356
-36638.9
-735.351
-36271.4
-736.294
-35903.3
-737.186
-35534.9
-738.03
-35166.1
-738.826
-34796.9
-739.576
-34427.3
-740.282
-34057.4
-740.943
-33687.2
-741.563
-33316.7
-742.141
-32946
-742.679
-32575
-743.179
-32203.7
-743.642
-31832.3
-744.068
-31460.6
-744.459
-31088.8
-744.817
-30716.8
-745.142
-30344.7
-745.435
-29972.5
-745.697
-29600.1
-745.93
-29227.6
-746.135
-28855
-746.312
-28482.4
-746.463
-28109.7
-746.589
-27736.9
-746.69
-27364.2
-746.768
-26991.3
-746.824
-26618.5
-746.858
-26245.7
-746.871
-25872.8
-746.865
-25500
-746.84
-25127.2
-746.797
-24754.4
-746.736
-24381.7
-746.66
-24009
-746.568
-23636.3
-746.462
-23263.8
-746.342
-22891.3
-746.208
-22518.8
-746.063
-22146.5
-745.905
-21774.2
-745.737
-21402
-745.559
-21029.9
-745.371
-20657.9
-745.175
-20286
-744.97
-19914.2
-744.758
-19542.5
-744.539
-19171
-744.314
-18799.5
-744.083
-18428.2
-743.847
-18057
-743.607
-17685.9
-743.363
-17314.9
-743.115
-16944.1
-742.865
-16573.4
-742.612
-16202.8
-742.358
-15832.3
-742.102
-15462
-741.846
-15091.7
-741.589
-14721.7
-741.333
-14351.7
-741.077
-13981.9
-740.822
-13612.2
-740.568
-13242.6
-740.317
-12873.2
-740.067
-12503.8
-739.821
-12134.6
-739.577
-11765.5
-739.337
-11396.6
-739.1
-11027.7
-738.867
-10659
-738.639
-10290.3
-738.415
-9921.83
-738.197
-9553.41
-737.984
-9185.1
-737.776
-8816.9
-737.574
-8448.78
-737.379
-8080.77
-737.19
-7712.84
-737.007
-7345
-736.832
-6977.24
-736.664
-6609.57
-736.503
-6241.97
-736.35
-5874.44
-736.206
-5506.98
-736.069
-5139.58
-735.942
-4772.25
-735.824
-4404.96
-735.715
-4037.73
-735.615
-3670.54
-735.526
-3303.39
-735.446
-2936.27
-735.377
-2569.19
-735.318
-2202.13
-735.27
-1835.08
-735.232
-1468.06
-735.203
-1101.04
-735.183
-734.024
-735.172
-367.013
-735.166
-735.167
-1451.65
4439.99
-2870.62
4331.42
-4227.8
4125.57
-5505.79
3862.98
-6699.73
3587.79
-7815.24
3334.76
-8864.58
3125.25
-9862.56
2966.31
-10823.5
2854.93
-11759.4
2782.35
-12679.2
2738.22
-13589.2
2712.96
-14493.1
2699.02
-15393.2
2690.96
-16290.4
2685.22
-17185.1
2679.69
-18077
2673.19
-18965.8
2665.18
-19851
2655.49
-20732.2
2644.11
-21608.9
2631.16
-22480.6
2616.77
-23347
2601.08
-24207.7
2584.21
-25062.4
2566.28
-25910.7
2547.39
-26752.4
2527.62
-27587.1
2507.05
-28414.8
2485.72
-29235.1
2463.71
-30047.8
2441.04
-30852.7
2417.77
-31649.7
2393.92
-32438.6
2369.54
-33219.1
2344.64
-33991.2
2319.26
-34754.6
2293.42
-35509.3
2267.14
-36255.1
2240.45
-36991.9
2213.36
-37719.5
2185.9
-38437.9
2158.07
-39146.8
2129.91
-39846.3
2101.42
-40536.2
2072.63
-41216.4
2043.54
-41886.8
2014.18
-42547.3
1984.55
-43197.9
1954.68
-43838.4
1924.58
-44468.9
1894.26
-45089.2
1863.73
-45699.2
1833.02
-46299
1802.12
-46888.4
1771.06
-47467.4
1739.85
-48036
1708.5
-48594.1
1677.03
-49141.7
1645.44
-49678.7
1613.75
-50205.1
1581.96
-50720.9
1550.1
-51226.1
1518.18
-51720.7
1486.2
-52204.6
1454.17
-52677.8
1422.11
-53140.3
1390.03
-53592.1
1357.94
-54033.3
1325.85
-54463.7
1293.77
-54883.5
1261.71
-55292.6
1229.68
-55691.1
1197.69
-56078.9
1165.76
-56456.2
1133.88
-56822.8
1102.07
-57178.8
1070.34
-57524.4
1038.7
-57859.4
1007.15
-58184
975.715
-58498.1
944.389
-58801.8
913.185
-59095.2
882.111
-59378.3
851.176
-59651.2
820.386
-59913.8
789.749
-60166.3
759.274
-60408.7
728.966
-60641.1
698.833
-60863.5
668.881
-61076
639.117
-61278.7
609.548
-61471.6
580.179
-61654.8
551.016
-61828.3
522.066
-61992.3
493.334
-62146.8
464.824
-62291.8
436.543
-62427.6
408.494
-62554
380.684
-62671.4
353.116
-62779.6
325.795
-62878.8
298.725
-62969
271.909
-63050.5
245.353
-63123.2
219.059
-63187.2
193.03
-63242.6
167.271
-63289.6
141.783
-63328.2
116.57
-63358.5
91.6347
-63380.6
66.9793
-63394.5
42.6062
-63400.5
18.5175
-63398.5
-5.28482
-63388.7
-28.7989
-63371.2
-52.0232
-63346
-74.9561
-63313.4
-97.5965
-63273.2
-119.943
-63225.8
-141.995
-63171.1
-163.751
-63109.3
-185.211
-63040.4
-206.374
-62964.6
-227.24
-62881.9
-247.808
-62792.5
-268.079
-62696.4
-288.052
-62593.9
-307.728
-62484.8
-327.107
-62369.4
-346.188
-62247.8
-364.974
-62120
-383.463
-61986.2
-401.658
-61846.4
-419.559
-61700.7
-437.167
-61549.3
-454.482
-61392.3
-471.507
-61229.6
-488.243
-61061.5
-504.69
-60888
-520.85
-60709.3
-536.726
-60525.3
-552.318
-60336.3
-567.628
-60142.3
-582.658
-59943.3
-597.41
-59739.6
-611.886
-59531.1
-626.088
-59318
-640.018
-59100.3
-653.678
-58878.2
-667.071
-58651.8
-680.198
-58421
-693.063
-58186.1
-705.666
-57947.1
-718.012
-57704
-730.102
-57457
-741.939
-57206.2
-753.525
-56951.6
-764.864
-56693.3
-775.957
-56431.4
-786.807
-56165.9
-797.418
-55897
-807.792
-55624.8
-817.932
-55349.2
-827.84
-55070.5
-837.52
-54788.6
-846.973
-54503.6
-856.204
-54215.6
-865.215
-53924.8
-874.009
-53631
-882.589
-53334.5
-890.958
-53035.3
-899.118
-52733.4
-907.073
-52428.9
-914.826
-52122
-922.379
-51812.6
-929.736
-51500.8
-936.9
-51186.7
-943.873
-50870.3
-950.659
-50551.8
-957.26
-50231.1
-963.68
-49908.4
-969.921
-49583.6
-975.986
-49256.9
-981.879
-48928.3
-987.602
-48597.8
-993.158
-48265.5
-998.55
-47931.5
-1003.78
-47595.8
-1008.85
-47258.5
-1013.77
-46919.6
-1018.54
-46579.2
-1023.15
-46237.3
-1027.62
-45893.9
-1031.95
-45549.2
-1036.13
-45203.1
-1040.17
-44855.8
-1044.08
-44507.1
-1047.86
-44157.3
-1051.51
-43806.3
-1055.02
-43454.1
-1058.42
-43100.9
-1061.69
-42746.7
-1064.84
-42391.4
-1067.87
-42035.1
-1070.79
-41678
-1073.6
-41319.9
-1076.3
-40961
-1078.89
-40601.2
-1081.38
-40240.7
-1083.76
-39879.4
-1086.04
-39517.4
-1088.23
-39154.6
-1090.32
-38791.3
-1092.32
-38427.2
-1094.23
-38062.6
-1096.05
-37697.4
-1097.78
-37331.7
-1099.43
-36965.4
-1101
-36598.7
-1102.49
-36231.5
-1103.9
-35863.8
-1105.24
-35495.7
-1106.5
-35127.2
-1107.69
-34758.4
-1108.81
-34389.2
-1109.87
-34019.7
-1110.86
-33649.8
-1111.78
-33279.7
-1112.65
-32909.3
-1113.45
-32538.7
-1114.2
-32167.9
-1114.89
-31796.8
-1115.53
-31425.5
-1116.11
-31054.1
-1116.65
-30682.5
-1117.13
-30310.7
-1117.57
-29938.9
-1117.96
-29566.9
-1118.31
-29194.8
-1118.62
-28822.6
-1118.88
-28450.4
-1119.1
-28078.1
-1119.29
-27705.7
-1119.44
-27333.3
-1119.56
-26960.9
-1119.64
-26588.4
-1119.69
-26216
-1119.71
-25843.5
-1119.7
-25471.1
-1119.66
-25098.7
-1119.59
-24726.3
-1119.5
-24354
-1119.38
-23981.7
-1119.24
-23609.5
-1119.08
-23237.3
-1118.9
-22865.2
-1118.7
-22493.2
-1118.48
-22121.2
-1118.24
-21749.4
-1117.99
-21377.6
-1117.72
-21005.9
-1117.44
-20634.3
-1117.14
-20262.8
-1116.84
-19891.5
-1116.52
-19520.2
-1116.19
-19149
-1115.85
-18778
-1115.5
-18407.1
-1115.15
-18036.3
-1114.79
-17665.6
-1114.42
-17295
-1114.05
-16924.6
-1113.67
-16554.3
-1113.29
-16184.1
-1112.91
-15814.1
-1112.53
-15444.2
-1112.14
-15074.4
-1111.75
-14704.7
-1111.37
-14335.2
-1110.99
-13965.8
-1110.6
-13596.5
-1110.22
-13227.3
-1109.84
-12858.3
-1109.47
-12489.4
-1109.1
-12120.6
-1108.73
-11752
-1108.37
-11383.4
-1108.02
-11015
-1107.67
-10646.7
-1107.32
-10278.5
-1106.99
-9910.35
-1106.66
-9542.36
-1106.34
-9174.48
-1106.03
-8806.69
-1105.73
-8439
-1105.43
-8071.41
-1105.15
-7703.91
-1104.87
-7336.49
-1104.61
-6969.16
-1104.36
-6601.91
-1104.12
-6234.73
-1103.89
-5867.63
-1103.67
-5500.6
-1103.47
-5133.62
-1103.27
-4766.71
-1103.1
-4399.85
-1102.93
-4033.05
-1102.78
-3666.28
-1102.65
-3299.56
-1102.53
-2932.87
-1102.43
-2566.21
-1102.34
-2199.57
-1102.27
-1832.96
-1102.21
-1466.35
-1102.17
-1099.76
-1102.14
-733.172
-1102.12
-366.586
-1102.11
-1102.11
-1414.38
5854.8
-2800.26
5717.74
-4133.3
5459.05
-5398.18
5128.3
-6589.49
4779.56
-7710.7
4456.44
-8771.13
4186.16
-9782.83
3978.5
-10757.9
3830.52
-11707
3731.89
-12638.3
3669.99
-13557.7
3632.9
-14469.2
3611.04
-15375.2
3597.44
-16277
3587.46
-17175
3578.22
-18069.4
3568.12
-18960.1
3556.35
-19846.7
3542.59
-20728.9
3526.78
-21606.3
3509.03
-22478.5
3489.47
-23345.2
3468.25
-24206.1
3445.53
-25060.8
3421.44
-25909
3396.11
-26750.6
3369.63
-27585.2
3342.09
-28412.6
3313.58
-29232.6
3284.16
-30045
3253.88
-30849.6
3222.8
-31646.2
3190.96
-32434.6
3158.41
-33214.7
3125.19
-33986.3
3091.32
-34749.4
3056.84
-35503.6
3021.78
-36248.9
2986.17
-36985.2
2950.04
-37712.3
2913.4
-38430.1
2876.3
-39138.6
2838.73
-39837.5
2800.74
-40526.8
2762.34
-41206.5
2723.55
-41876.3
2684.4
-42536.3
2644.89
-43186.3
2605.06
-43826.3
2564.92
-44456.2
2524.49
-45075.9
2483.79
-45685.4
2442.83
-46284.6
2401.64
-46873.4
2360.23
-47451.8
2318.61
-48019.8
2276.82
-48577.4
2234.85
-49124.4
2192.73
-49660.8
2150.48
-50186.6
2108.11
-50701.9
2065.63
-51206.5
2023.06
-51700.4
1980.43
-52183.7
1937.73
-52656.3
1894.99
-53118.3
1852.22
-53569.5
1809.44
-54010.1
1766.66
-54440
1723.89
-54859.2
1681.15
-55267.7
1638.46
-55665.6
1595.81
-56052.9
1553.24
-56429.6
1510.74
-56795.6
1468.34
-57151.1
1426.04
-57496.1
1383.86
-57830.6
1341.81
-58154.6
1299.9
-58468.2
1258.15
-58771.3
1216.55
-59064.2
1175.13
-59346.8
1133.89
-59619.1
1092.85
-59881.2
1052.01
-60133.2
1011.39
-60375.1
970.992
-60606.9
930.827
-60828.8
890.904
-61040.8
851.231
-61243
811.818
-61435.4
772.673
-61618.1
733.803
-61791.1
695.216
-61954.6
656.919
-62108.6
618.92
-62253.3
581.226
-62388.5
543.842
-62514.6
506.776
-62631.4
470.033
-62739.2
433.62
-62838
397.541
-62927.8
361.802
-63008.8
326.408
-63081.1
291.364
-63144.7
256.675
-63199.8
222.344
-63246.4
188.376
-63284.6
154.775
-63314.5
121.543
-63336.2
88.6853
-63349.8
56.2037
-63355.4
24.1014
-63353.1
-7.61898
-63343
-38.955
-63325.1
-69.9045
-63299.6
-100.466
-63266.6
-130.637
-63226.2
-160.416
-63178.5
-189.802
-63123.5
-218.794
-63061.4
-247.391
-62992.2
-275.592
-62916.1
-303.397
-62833.2
-330.805
-62743.6
-357.816
-62647.3
-384.43
-62544.5
-410.648
-62435.2
-436.47
-62319.6
-461.896
-62197.8
-486.927
-62069.8
-511.563
-61935.7
-535.807
-61795.8
-559.659
-61650
-583.119
-61498.4
-606.191
-61341.2
-628.875
-61178.4
-651.173
-61010.1
-673.086
-60836.5
-694.618
-60657.6
-715.77
-60473.6
-736.543
-60284.4
-756.941
-60090.3
-776.966
-59891.3
-796.62
-59687.4
-815.906
-59478.9
-834.827
-59265.7
-853.385
-59048
-871.584
-58825.9
-889.426
-58599.4
-906.914
-58368.6
-924.052
-58133.6
-940.842
-57894.6
-957.289
-57651.5
-973.394
-57404.5
-989.163
-57153.7
-1004.6
-56899.1
-1019.7
-56640.8
-1034.48
-56378.9
-1048.93
-56113.5
-1063.07
-55844.7
-1076.89
-55572.5
-1090.39
-55297
-1103.59
-55018.3
-1116.48
-54736.4
-1129.08
-54451.5
-1141.37
-54163.7
-1153.37
-53872.9
-1165.09
-53579.2
-1176.51
-53282.8
-1187.66
-52983.7
-1198.53
-52681.9
-1209.12
-52377.6
-1219.45
-52070.8
-1229.51
-51761.5
-1239.31
-51449.9
-1248.85
-51135.9
-1258.13
-50819.7
-1267.17
-50501.3
-1275.96
-50180.8
-1284.51
-49858.2
-1292.82
-49533.6
-1300.9
-49207.1
-1308.75
-48878.7
-1316.37
-48548.4
-1323.76
-48216.3
-1330.94
-47882.5
-1337.91
-47547
-1344.66
-47209.9
-1351.21
-46871.3
-1357.56
-46531.1
-1363.7
-46189.4
-1369.65
-45846.3
-1375.41
-45501.8
-1380.98
-45155.9
-1386.37
-44808.8
-1391.57
-44460.4
-1396.6
-44110.8
-1401.45
-43760.1
-1406.13
-43408.2
-1410.65
-43055.3
-1415.01
-42701.3
-1419.2
-42346.3
-1423.24
-41990.3
-1427.12
-41633.4
-1430.86
-41275.6
-1434.45
-40917
-1437.9
-40557.5
-1441.21
-40197.3
-1444.38
-39836.3
-1447.42
-39474.6
-1450.33
-39112.2
-1453.11
-38749.1
-1455.77
-38385.4
-1458.31
-38021.1
-1460.73
-37656.2
-1463.03
-37290.8
-1465.23
-36924.9
-1467.31
-36558.5
-1469.29
-36191.6
-1471.17
-35824.3
-1472.95
-35456.5
-1474.63
-35088.4
-1476.21
-34719.9
-1477.7
-34351
-1479.1
-33981.9
-1480.42
-33612.4
-1481.65
-33242.6
-1482.8
-32872.6
-1483.87
-32502.3
-1484.86
-32131.8
-1485.78
-31761.1
-1486.63
-31390.2
-1487.4
-31019.2
-1488.11
-30647.9
-1488.75
-30276.6
-1489.33
-29905.1
-1489.85
-29533.5
-1490.31
-29161.7
-1490.72
-28789.9
-1491.07
-28418.1
-1491.36
-28046.2
-1491.61
-27674.2
-1491.81
-27302.2
-1491.96
-26930.1
-1492.06
-26558.1
-1492.13
-26186
-1492.15
-25814
-1492.13
-25442
-1492.08
-25070
-1491.99
-24698
-1491.86
-24326
-1491.71
-23954.2
-1491.52
-23582.3
-1491.3
-23210.6
-1491.06
-22838.9
-1490.79
-22467.2
-1490.49
-22095.7
-1490.18
-21724.2
-1489.84
-21352.8
-1489.48
-20981.6
-1489.1
-20610.4
-1488.7
-20239.3
-1488.29
-19868.4
-1487.86
-19497.5
-1487.42
-19126.8
-1486.97
-18756.1
-1486.51
-18385.6
-1486.03
-18015.3
-1485.55
-17645
-1485.06
-17274.9
-1484.56
-16904.9
-1484.06
-16535
-1483.55
-16165.2
-1483.04
-15795.6
-1482.53
-15426.1
-1482.01
-15056.7
-1481.5
-14687.5
-1480.98
-14318.4
-1480.47
-13949.4
-1479.96
-13580.5
-1479.45
-13211.8
-1478.94
-12843.2
-1478.44
-12474.7
-1477.95
-12106.4
-1477.46
-11738.1
-1476.98
-11370
-1476.5
-11002
-1476.04
-10634.1
-1475.58
-10266.3
-1475.13
-9898.67
-1474.69
-9531.11
-1474.27
-9163.66
-1473.85
-8796.3
-1473.45
-8429.04
-1473.05
-8061.88
-1472.68
-7694.81
-1472.31
-7327.83
-1471.96
-6960.93
-1471.62
-6594.11
-1471.3
-6227.36
-1470.99
-5860.69
-1470.7
-5494.09
-1470.43
-5127.55
-1470.17
-4761.07
-1469.94
-4394.65
-1469.72
-4028.28
-1469.52
-3661.95
-1469.34
-3295.66
-1469.18
-2929.4
-1469.04
-2563.17
-1468.92
-2196.97
-1468.83
-1830.79
-1468.75
-1464.62
-1468.69
-1098.46
-1468.65
-732.308
-1468.63
-366.156
-1468.62
-1468.63
-1382.21
7237.45
-2739.55
7075.51
-4051.4
6771.34
-5304.2
6381.55
-6492.32
5968.15
-7617.59
5582.18
-8687
5256.05
-9710.31
5002.28
-10697.7
4818.44
-11658.6
4693.23
-12600.4
4612.26
-13528.7
4561.74
-14447.5
4530.37
-15359.4
4509.79
-16265.7
4494.3
-17167.4
4480.35
-18064.6
4465.83
-18957.4
4449.65
-19845.7
4431.32
-20729.1
4410.71
-21607.5
4387.84
-22480.4
4362.87
-23347.6
4335.93
-24208.8
4307.2
-25063.7
4276.83
-25912.1
4244.95
-26753.7
4211.67
-27588.3
4177.11
-28415.6
4141.35
-29235.4
4104.46
-30047.6
4066.53
-30852
4027.6
-31648.3
3987.74
-32436.5
3947
-33216.3
3905.41
-33987.6
3863.04
-34750.2
3819.9
-35504.1
3776.05
-36249
3731.5
-36984.9
3686.31
-37711.6
3640.49
-38429
3594.09
-39137
3547.11
-39835.5
3499.61
-40524.3
3451.59
-41203.5
3403.09
-41872.9
3354.13
-42532.4
3304.74
-43181.9
3254.94
-43821.4
3204.76
-44450.7
3154.21
-45069.9
3103.33
-45678.9
3052.13
-46277.6
3000.63
-46865.9
2948.86
-47443.8
2896.84
-48011.2
2844.59
-48568.2
2792.13
-49114.6
2739.48
-49650.5
2686.66
-50175.8
2633.69
-50690.5
2580.6
-51194.6
2527.39
-51688
2474.1
-52170.7
2420.73
-52642.7
2367.31
-53104.1
2313.85
-53554.8
2260.38
-53994.8
2206.9
-54424.1
2153.45
-54842.8
2100.03
-55250.7
2046.66
-55648.1
1993.36
-56034.8
1940.15
-56410.8
1887.04
-56776.3
1834.04
-57131.3
1781.18
-57475.7
1728.46
-57809.6
1675.91
-58133
1623.53
-58446
1571.34
-58748.7
1519.35
-59041
1467.59
-59323
1416.05
-59594.7
1364.76
-59856.3
1313.73
-60107.7
1262.96
-60349.1
1212.47
-60580.4
1162.28
-60801.8
1112.39
-61013.2
1062.81
-61214.8
1013.56
-61406.7
964.637
-61588.9
916.063
-61761.4
867.844
-61924.4
819.988
-62077.9
772.504
-62222
725.401
-62356.8
678.687
-62482.3
632.37
-62598.7
586.457
-62705.9
540.956
-62804.2
495.874
-62893.6
451.218
-62974.2
406.993
-63046
363.205
-63109.1
319.861
-63163.7
276.965
-63209.9
234.523
-63247.6
192.539
-63277.1
151.018
-63298.4
109.964
-63311.6
69.3808
-63316.8
29.2718
-63314
-10.3597
-63303.5
-49.5105
-63285.3
-88.1781
-63259.4
-126.36
-63226
-164.054
-63185.3
-201.258
-63137.1
-237.971
-63081.8
-274.191
-63019.3
-309.917
-62949.9
-345.149
-62873.4
-379.885
-62790.2
-414.125
-62700.2
-447.868
-62603.6
-481.116
-62500.5
-513.868
-62391
-546.125
-62275.1
-577.887
-62153
-609.155
-62024.7
-639.93
-61890.4
-670.214
-61750.2
-700.008
-61604.1
-729.314
-61452.3
-758.133
-61294.9
-786.467
-61131.9
-814.319
-60963.4
-841.691
-60789.6
-868.586
-60610.6
-895.005
-60426.3
-920.952
-60237
-946.429
-60042.7
-971.44
-59843.5
-995.988
-59639.5
-1020.08
-59430.8
-1043.71
-59217.5
-1066.88
-58999.7
-1089.61
-58777.4
-1111.9
-58550.8
-1133.74
-58319.9
-1155.14
-58084.9
-1176.11
-57845.8
-1196.65
-57602.6
-1216.76
-57355.5
-1236.45
-57104.7
-1255.73
-56850
-1274.59
-56591.7
-1293.04
-56329.8
-1311.09
-56064.3
-1328.74
-55795.5
-1346
-55523.3
-1362.86
-55247.8
-1379.34
-54969.1
-1395.44
-54687.2
-1411.17
-54402.4
-1426.52
-54114.5
-1441.5
-53823.7
-1456.13
-53530.1
-1470.4
-53233.8
-1484.31
-52934.7
-1497.88
-52633
-1511.11
-52328.8
-1524
-52022
-1536.56
-51712.8
-1548.79
-51401.3
-1560.7
-51087.4
-1572.3
-50771.3
-1583.58
-50453
-1594.55
-50132.6
-1605.23
-49810.2
-1615.6
-49485.7
-1625.68
-49159.3
-1635.48
-48831
-1644.99
-48500.9
-1654.22
-48169
-1663.19
-47835.3
-1671.88
-47500
-1680.31
-47163.1
-1688.48
-46824.6
-1696.4
-46484.6
-1704.07
-46143.1
-1711.5
-45800.2
-1718.68
-45455.9
-1725.63
-45110.2
-1732.35
-44763.3
-1738.85
-44415.1
-1745.12
-44065.8
-1751.18
-43715.2
-1757.02
-43363.6
-1762.65
-43010.9
-1768.09
-42657.1
-1773.32
-42302.4
-1778.36
-41946.7
-1783.21
-41590
-1787.87
-41232.5
-1792.35
-40874.1
-1796.65
-40514.9
-1800.77
-40155
-1804.73
-39794.2
-1808.52
-39432.8
-1812.15
-39070.7
-1815.62
-38707.9
-1818.93
-38344.5
-1822.1
-37980.5
-1825.12
-37615.9
-1827.99
-37250.8
-1830.73
-36885.2
-1833.33
-36519.1
-1835.79
-36152.5
-1838.13
-35785.5
-1840.35
-35418
-1842.44
-35050.2
-1844.41
-34682.1
-1846.27
-34313.5
-1848.01
-33944.7
-1849.65
-33575.5
-1851.19
-33206.1
-1852.62
-32836.4
-1853.95
-32466.5
-1855.18
-32096.4
-1856.32
-31726
-1857.38
-31355.4
-1858.34
-30984.7
-1859.22
-30613.9
-1860.02
-30242.8
-1860.74
-29871.7
-1861.38
-29500.4
-1861.95
-29129.1
-1862.45
-28757.7
-1862.89
-28386.2
-1863.25
-28014.6
-1863.56
-27643
-1863.8
-27271.4
-1863.98
-26899.7
-1864.11
-26528.1
-1864.19
-26156.4
-1864.21
-25784.7
-1864.19
-25413.1
-1864.11
-25041.4
-1864
-24669.9
-1863.84
-24298.3
-1863.64
-23926.8
-1863.4
-23555.4
-1863.13
-23184
-1862.82
-22812.7
-1862.48
-22441.5
-1862.11
-22070.3
-1861.71
-21699.3
-1861.28
-21328.3
-1860.83
-20957.4
-1860.35
-20586.6
-1859.86
-20216
-1859.34
-19845.4
-1858.8
-19475
-1858.25
-19104.6
-1857.68
-18734.4
-1857.1
-18364.3
-1856.5
-17994.4
-1855.9
-17624.5
-1855.28
-17254.8
-1854.66
-16885.2
-1854.03
-16515.7
-1853.39
-16146.4
-1852.75
-15777.2
-1852.11
-15408.1
-1851.47
-15039.2
-1850.82
-14670.3
-1850.18
-14301.6
-1849.53
-13933.1
-1848.89
-13564.6
-1848.26
-13196.3
-1847.62
-12828.2
-1847
-12460.1
-1846.38
-12092.2
-1845.77
-11724.3
-1845.16
-11356.7
-1844.57
-10989.1
-1843.98
-10621.6
-1843.41
-10254.3
-1842.85
-9887.02
-1842.3
-9519.89
-1841.77
-9152.86
-1841.24
-8785.94
-1840.74
-8419.11
-1840.25
-8052.37
-1839.77
-7685.73
-1839.32
-7319.18
-1838.87
-6952.71
-1838.45
-6586.32
-1838.05
-6220.01
-1837.67
-5853.77
-1837.3
-5487.6
-1836.96
-5121.49
-1836.64
-4755.45
-1836.35
-4389.45
-1836.07
-4023.51
-1835.82
-3657.62
-1835.6
-3291.76
-1835.4
-2925.94
-1835.22
-2560.14
-1835.08
-2194.37
-1834.96
-1828.62
-1834.86
-1462.89
-1834.79
-1097.16
-1834.74
-731.441
-1834.71
-365.721
-1834.7
-1834.71
-1351.01
8588.89
-2680.67
8405.6
-3971.7
8062.82
-5212.2
7622.5
-6396.49
7152.9
-7525
6711.15
-8602.65
6334.18
-9637.06
6037.17
-10636.6
5818.52
-11609.4
5666.45
-12562
5565.37
-13499.8
5500.01
-14426.5
5457.62
-15344.9
5428.62
-16256.5
5406.4
-17162.3
5386.68
-18062.9
5366.88
-18958.4
5345.61
-19848.7
5322.17
-20733.9
5296.3
-21613.5
5267.99
-22487.5
5237.32
-23355.6
5204.45
-24217.4
5169.53
-25072.8
5132.72
-25921.6
5094.17
-26763.5
5054
-27598.2
5012.32
-28425.6
4969.23
-29245.6
4924.82
-30057.8
4879.17
-30862.1
4832.36
-31658.3
4784.43
-32446.4
4735.46
-33226
4685.49
-33997.1
4634.57
-34759.5
4582.75
-35513.2
4530.07
-36257.8
4476.58
-36993.4
4422.3
-37719.8
4367.28
-38436.9
4311.56
-39144.5
4255.16
-39842.7
4198.12
-40531.2
4140.48
-41210
4082.25
-41879
4023.48
-42538
3964.19
-43187.2
3904.41
-43826.2
3844.17
-44455.2
3783.5
-45073.9
3722.42
-45682.4
3660.96
-46280.6
3599.15
-46868.4
3537.02
-47445.9
3474.58
-48012.8
3411.87
-48569.3
3348.91
-49115.3
3285.72
-49650.6
3222.33
-50175.4
3158.76
-50689.6
3095.04
-51193.1
3031.19
-51685.9
2967.23
-52168.1
2903.18
-52639.6
2839.07
-53100.4
2774.92
-53550.6
2710.75
-53990
2646.58
-54418.7
2582.43
-54836.8
2518.33
-55244.2
2454.29
-55640.9
2390.33
-56027.1
2326.48
-56402.6
2262.74
-56767.5
2199.15
-57121.8
2135.72
-57465.6
2072.46
-57798.9
2009.4
-58121.8
1946.55
-58434.2
1883.93
-58736.2
1821.56
-59027.9
1759.44
-59309.3
1697.61