/*--------------------------------*- C++ -*----------------------------------*\
| =========                 |                                                 |
| \\      /  F ield         | OpenFOAM: The Open Source CFD Toolbox           |
|  \\    /   O peration     | Version:  2212                                  |
|   \\  /    A nd           | Website:  www.openfoam.com                      |
|    \\/     M anipulation  |                                                 |
\*---------------------------------------------------------------------------*/
FoamFile
{
    version     2.0;
    format      ascii;
    arch        "LSB;label=32;scalar=64";
    class       volScalarField;
    location    "1000";
    object      p_rgh;
}
// * * * * * * * * * * * * * * * * * * * * * * * * * * * * * * * * * * * * * //

dimensions      [1 -1 -2 0 0 0 0];

internalField   nonuniform List<scalar> 
204800
(
51.0734
51.0733
51.0721
51.0705
51.0679
51.0646
51.0602
51.0549
51.0484
51.0409
51.0324
51.0229
51.0125
51.0012
50.989
50.9761
50.9623
50.9477
50.9323
50.9162
50.8992
50.8816
50.8632
50.844
50.8241
50.8035
50.7822
50.7602
50.7374
50.714
50.6899
50.6651
50.6397
50.6136
50.5869
50.5595
50.5315
50.5029
50.4737
50.4439
50.4135
50.3826
50.3511
50.3191
50.2865
50.2534
50.2198
50.1857
50.1511
50.1161
50.0806
50.0446
50.0082
49.9714
49.9342
49.8966
49.8587
49.8203
49.7817
49.7427
49.7033
49.6637
49.6238
49.5836
49.5431
49.5024
49.4615
49.4203
49.3789
49.3374
49.2957
49.2538
49.2118
49.1696
49.1274
49.085
49.0425
49
48.9575
48.9148
48.8722
48.8296
48.7869
48.7443
48.7017
48.6592
48.6167
48.5743
48.532
48.4898
48.4478
48.4058
48.364
48.3224
48.281
48.2397
48.1986
48.1578
48.1172
48.0768
48.0367
47.9968
47.9572
47.9179
47.879
47.8403
47.802
47.7639
47.7263
47.689
47.6521
47.6155
47.5794
47.5437
47.5083
47.4734
47.439
47.4049
47.3713
47.3382
47.3056
47.2734
47.2417
47.2105
47.1798
47.1496
47.12
47.0908
47.0622
47.0341
47.0065
46.9795
46.9531
46.9272
46.9019
46.8771
46.8529
46.8293
46.8063
46.7838
46.762
46.7407
46.72
46.6999
46.6805
46.6616
46.6433
46.6256
46.6085
46.5921
46.5762
46.561
46.5463
46.5323
46.5189
46.5061
46.4939
46.4823
46.4713
46.4609
46.4511
46.4419
46.4333
46.4253
46.4179
46.4111
46.4048
46.3992
46.3941
46.3896
46.3857
46.3824
46.3796
46.3774
46.3757
46.3746
46.374
46.374
46.3745
46.3756
46.3771
46.3792
46.3818
46.3849
46.3885
46.3926
46.3971
46.4022
46.4077
46.4137
46.4202
46.4271
46.4344
46.4422
46.4504
46.459
46.4681
46.4775
46.4874
46.4976
46.5082
46.5192
46.5306
46.5423
46.5543
46.5667
46.5794
46.5925
46.6058
46.6195
46.6334
46.6477
46.6622
46.6769
46.692
46.7073
46.7228
46.7385
46.7545
46.7707
46.7871
46.8037
46.8204
46.8374
46.8545
46.8718
46.8892
46.9067
46.9244
46.9422
46.9601
46.9782
46.9963
47.0145
47.0327
47.0511
47.0695
47.0879
47.1064
47.1249
47.1435
47.162
47.1806
47.1992
47.2177
47.2363
47.2548
47.2732
47.2917
47.31
47.3283
47.3466
47.3647
47.3828
47.4008
47.4187
47.4365
47.4542
47.4717
47.4891
47.5064
47.5235
47.5405
47.5574
47.574
47.5905
47.6068
47.623
47.6389
47.6547
47.6702
47.6855
47.7007
47.7155
47.7302
47.7447
47.7589
47.7728
47.7865
47.8
47.8132
47.8261
47.8387
47.8511
47.8632
47.8751
47.8866
47.8978
47.9088
47.9194
47.9298
47.9398
47.9495
47.9589
47.968
47.9768
47.9852
47.9933
48.0011
48.0086
48.0157
48.0224
48.0289
48.035
48.0407
48.0461
48.0511
48.0558
48.0601
48.0641
48.0677
48.071
48.0739
48.0765
48.0786
48.0805
48.0819
48.083
48.0837
48.0841
50.9849
50.9839
50.9817
50.9787
50.9746
50.9697
50.964
50.9574
50.95
50.9418
50.9328
50.9229
50.9123
50.9008
50.8886
50.8755
50.8617
50.8471
50.8317
50.8156
50.7987
50.781
50.7627
50.7435
50.7237
50.7031
50.6818
50.6598
50.6371
50.6137
50.5897
50.5649
50.5395
50.5135
50.4868
50.4595
50.4315
50.403
50.3738
50.3441
50.3138
50.2829
50.2515
50.2195
50.187
50.1539
50.1204
50.0863
50.0518
50.0168
49.9814
49.9455
49.9092
49.8725
49.8353
49.7978
49.7599
49.7217
49.6831
49.6441
49.6049
49.5653
49.5255
49.4853
49.4449
49.4043
49.3634
49.3224
49.2811
49.2396
49.198
49.1561
49.1142
49.0721
49.0299
48.9877
48.9453
48.9028
48.8604
48.8178
48.7753
48.7327
48.6901
48.6476
48.6051
48.5627
48.5203
48.4779
48.4357
48.3936
48.3516
48.3097
48.268
48.2265
48.1851
48.1439
48.1029
48.0622
48.0216
47.9813
47.9413
47.9015
47.862
47.8228
47.7838
47.7453
47.707
47.669
47.6315
47.5942
47.5574
47.5209
47.4848
47.4492
47.4139
47.3791
47.3447
47.3107
47.2772
47.2441
47.2115
47.1794
47.1478
47.1166
47.086
47.0559
47.0263
46.9972
46.9686
46.9405
46.9131
46.8861
46.8597
46.8339
46.8086
46.7839
46.7597
46.7362
46.7132
46.6908
46.6689
46.6477
46.6271
46.607
46.5876
46.5687
46.5505
46.5328
46.5158
46.4994
46.4835
46.4683
46.4537
46.4397
46.4263
46.4135
46.4013
46.3898
46.3788
46.3684
46.3586
46.3495
46.3409
46.3329
46.3255
46.3187
46.3125
46.3069
46.3018
46.2973
46.2934
46.2901
46.2873
46.2851
46.2834
46.2823
46.2818
46.2817
46.2822
46.2833
46.2848
46.2869
46.2895
46.2926
46.2962
46.3003
46.3048
46.3099
46.3154
46.3214
46.3278
46.3347
46.3421
46.3498
46.358
46.3666
46.3757
46.3851
46.3949
46.4051
46.4157
46.4267
46.438
46.4497
46.4618
46.4741
46.4868
46.4998
46.5132
46.5268
46.5407
46.5549
46.5694
46.5842
46.5992
46.6144
46.6299
46.6456
46.6616
46.6777
46.6941
46.7106
46.7274
46.7443
46.7614
46.7786
46.796
46.8135
46.8312
46.849
46.8668
46.8848
46.9029
46.9211
46.9393
46.9576
46.976
46.9944
47.0129
47.0314
47.0499
47.0684
47.0869
47.1055
47.124
47.1425
47.1609
47.1794
47.1978
47.2161
47.2344
47.2526
47.2707
47.2888
47.3067
47.3246
47.3423
47.36
47.3775
47.3949
47.4121
47.4292
47.4462
47.463
47.4796
47.4961
47.5124
47.5285
47.5444
47.5601
47.5756
47.5909
47.606
47.6209
47.6355
47.6499
47.6641
47.678
47.6917
47.7051
47.7183
47.7312
47.7438
47.7562
47.7683
47.7801
47.7916
47.8028
47.8138
47.8244
47.8347
47.8447
47.8544
47.8638
47.8729
47.8816
47.8901
47.8982
47.9059
47.9134
47.9205
47.9272
47.9336
47.9397
47.9454
47.9508
47.9558
47.9605
47.9648
47.9688
47.9724
47.9757
47.9786
47.9811
47.9833
47.9851
47.9866
47.9877
47.9884
47.9888
50.9662
50.9652
50.963
50.96
50.9559
50.951
50.9452
50.9387
50.9312
50.923
50.914
50.9041
50.8934
50.8819
50.8697
50.8566
50.8428
50.8281
50.8127
50.7966
50.7797
50.762
50.7436
50.7245
50.7046
50.684
50.6627
50.6407
50.618
50.5947
50.5706
50.5459
50.5205
50.4944
50.4677
50.4404
50.4125
50.3839
50.3548
50.325
50.2947
50.2638
50.2324
50.2004
50.1679
50.1348
50.1013
50.0673
50.0327
49.9978
49.9623
49.9264
49.8901
49.8534
49.8163
49.7788
49.7409
49.7026
49.664
49.6251
49.5858
49.5463
49.5064
49.4663
49.4259
49.3853
49.3444
49.3033
49.262
49.2206
49.1789
49.1371
49.0952
49.0531
49.0109
48.9687
48.9263
48.8839
48.8414
48.7988
48.7563
48.7137
48.6712
48.6286
48.5861
48.5437
48.5013
48.459
48.4168
48.3747
48.3327
48.2908
48.2491
48.2075
48.1662
48.125
48.084
48.0432
48.0027
47.9624
47.9224
47.8826
47.8431
47.8039
47.765
47.7264
47.6881
47.6502
47.6126
47.5754
47.5385
47.5021
47.466
47.4303
47.3951
47.3602
47.3258
47.2919
47.2583
47.2253
47.1927
47.1606
47.129
47.0978
47.0672
47.0371
47.0074
46.9783
46.9498
46.9217
46.8943
46.8673
46.8409
46.8151
46.7898
46.7651
46.7409
46.7174
46.6944
46.672
46.6502
46.6289
46.6083
46.5883
46.5688
46.55
46.5317
46.5141
46.4971
46.4806
46.4648
46.4496
46.435
46.421
46.4076
46.3948
46.3826
46.371
46.3601
46.3497
46.3399
46.3307
46.3222
46.3142
46.3068
46.3
46.2938
46.2881
46.2831
46.2786
46.2747
46.2714
46.2686
46.2664
46.2647
46.2636
46.2631
46.263
46.2635
46.2646
46.2661
46.2682
46.2708
46.2739
46.2775
46.2816
46.2861
46.2912
46.2967
46.3027
46.3091
46.316
46.3234
46.3311
46.3393
46.3479
46.357
46.3664
46.3762
46.3864
46.397
46.408
46.4193
46.431
46.443
46.4554
46.4681
46.4811
46.4944
46.5081
46.522
46.5362
46.5507
46.5654
46.5804
46.5957
46.6112
46.6269
46.6428
46.659
46.6753
46.6919
46.7086
46.7255
46.7426
46.7599
46.7772
46.7948
46.8124
46.8302
46.8481
46.866
46.8841
46.9023
46.9205
46.9388
46.9572
46.9756
46.9941
47.0126
47.0311
47.0496
47.0681
47.0866
47.1052
47.1236
47.1421
47.1605
47.1789
47.1973
47.2155
47.2337
47.2519
47.2699
47.2879
47.3057
47.3235
47.3411
47.3586
47.376
47.3933
47.4104
47.4273
47.4441
47.4607
47.4772
47.4935
47.5096
47.5255
47.5412
47.5567
47.572
47.5871
47.602
47.6166
47.631
47.6452
47.6591
47.6728
47.6862
47.6994
47.7123
47.7249
47.7373
47.7494
47.7612
47.7727
47.7839
47.7948
47.8054
47.8158
47.8258
47.8355
47.8449
47.8539
47.8627
47.8711
47.8792
47.887
47.8944
47.9015
47.9082
47.9147
47.9207
47.9265
47.9318
47.9369
47.9415
47.9459
47.9498
47.9535
47.9567
47.9596
47.9621
47.9643
47.9661
47.9676
47.9687
47.9694
47.9698
50.8873
50.886
50.8833
50.8797
50.8749
50.8693
50.8628
50.8556
50.8476
50.8389
50.8294
50.8193
50.8083
50.7967
50.7843
50.7711
50.7572
50.7425
50.7271
50.7109
50.694
50.6763
50.6579
50.6388
50.6189
50.5983
50.5771
50.5551
50.5324
50.509
50.485
50.4603
50.4349
50.4089
50.3822
50.3549
50.327
50.2985
50.2694
50.2397
50.2094
50.1785
50.1471
50.1152
50.0827
50.0497
50.0162
49.9822
49.9477
49.9128
49.8774
49.8416
49.8053
49.7686
49.7315
49.6941
49.6562
49.618
49.5795
49.5406
49.5014
49.4619
49.4221
49.382
49.3417
49.3011
49.2603
49.2192
49.178
49.1366
49.095
49.0533
49.0114
48.9693
48.9272
48.885
48.8427
48.8003
48.7579
48.7154
48.6729
48.6304
48.5879
48.5454
48.503
48.4606
48.4182
48.376
48.3338
48.2918
48.2498
48.208
48.1664
48.1249
48.0836
48.0424
48.0015
47.9608
47.9203
47.88
47.8401
47.8003
47.7609
47.7217
47.6829
47.6443
47.6061
47.5682
47.5307
47.4935
47.4567
47.4203
47.3843
47.3487
47.3135
47.2787
47.2443
47.2104
47.1769
47.1439
47.1114
47.0793
47.0477
47.0166
46.986
46.9559
46.9264
46.8973
46.8688
46.8408
46.8133
46.7864
46.7601
46.7343
46.709
46.6843
46.6602
46.6367
46.6138
46.5914
46.5696
46.5484
46.5278
46.5078
46.4884
46.4696
46.4513
46.4337
46.4167
46.4003
46.3845
46.3693
46.3547
46.3407
46.3274
46.3146
46.3024
46.2909
46.2799
46.2696
46.2598
46.2507
46.2421
46.2341
46.2268
46.22
46.2138
46.2081
46.2031
46.1986
46.1947
46.1914
46.1886
46.1864
46.1848
46.1837
46.1831
46.1831
46.1836
46.1847
46.1862
46.1883
46.1909
46.194
46.1976
46.2017
46.2062
46.2113
46.2168
46.2228
46.2292
46.2361
46.2434
46.2512
46.2594
46.268
46.277
46.2864
46.2962
46.3064
46.317
46.328
46.3393
46.351
46.363
46.3753
46.388
46.401
46.4143
46.4279
46.4419
46.456
46.4705
46.4852
46.5002
46.5155
46.5309
46.5466
46.5626
46.5787
46.595
46.6116
46.6283
46.6452
46.6622
46.6795
46.6968
46.7143
46.732
46.7497
46.7676
46.7855
46.8036
46.8217
46.8399
46.8582
46.8766
46.895
46.9134
46.9319
46.9503
46.9688
46.9874
47.0059
47.0243
47.0428
47.0613
47.0797
47.098
47.1164
47.1346
47.1528
47.1709
47.1889
47.2069
47.2247
47.2424
47.26
47.2775
47.2949
47.3121
47.3292
47.3461
47.3629
47.3795
47.3959
47.4122
47.4283
47.4442
47.4599
47.4754
47.4906
47.5057
47.5206
47.5352
47.5496
47.5637
47.5776
47.5913
47.6047
47.6178
47.6307
47.6433
47.6557
47.6678
47.6795
47.691
47.7022
47.7131
47.7238
47.7341
47.7441
47.7538
47.7631
47.7722
47.7809
47.7893
47.7974
47.8052
47.8126
47.8197
47.8264
47.8328
47.8389
47.8446
47.85
47.855
47.8597
47.864
47.868
47.8716
47.8748
47.8777
47.8803
47.8824
47.8843
47.8857
47.8868
47.8875
47.8879
50.8563
50.8551
50.8525
50.8489
50.8442
50.8386
50.8321
50.8249
50.817
50.8083
50.7988
50.7886
50.7777
50.766
50.7535
50.7403
50.7264
50.7117
50.6962
50.68
50.663
50.6453
50.6269
50.6078
50.5879
50.5673
50.546
50.524
50.5013
50.4779
50.4539
50.4291
50.4038
50.3777
50.3511
50.3238
50.2958
50.2673
50.2382
50.2085
50.1782
50.1474
50.1159
50.084
50.0515
50.0185
49.985
49.951
49.9166
49.8816
49.8462
49.8104
49.7741
49.7374
49.7003
49.6629
49.625
49.5868
49.5483
49.5094
49.4702
49.4307
49.3909
49.3508
49.3105
49.2699
49.2291
49.1881
49.1468
49.1054
49.0638
49.0221
48.9802
48.9382
48.8961
48.8538
48.8115
48.7691
48.7267
48.6842
48.6417
48.5992
48.5567
48.5143
48.4718
48.4294
48.3871
48.3448
48.3027
48.2606
48.2187
48.1769
48.1352
48.0937
48.0524
48.0113
47.9704
47.9297
47.8892
47.8489
47.8089
47.7692
47.7298
47.6906
47.6518
47.6132
47.575
47.5371
47.4996
47.4624
47.4257
47.3892
47.3532
47.3176
47.2824
47.2476
47.2132
47.1793
47.1459
47.1129
47.0803
47.0483
47.0167
46.9856
46.955
46.9249
46.8953
46.8663
46.8378
46.8098
46.7823
46.7554
46.7291
46.7033
46.678
46.6533
46.6292
46.6057
46.5828
46.5604
46.5386
46.5174
46.4968
46.4768
46.4574
46.4386
46.4204
46.4028
46.3858
46.3693
46.3536
46.3384
46.3238
46.3098
46.2964
46.2837
46.2715
46.2599
46.249
46.2386
46.2289
46.2197
46.2112
46.2032
46.1958
46.1891
46.1829
46.1772
46.1722
46.1677
46.1638
46.1605
46.1578
46.1555
46.1539
46.1528
46.1522
46.1522
46.1527
46.1538
46.1553
46.1574
46.16
46.1631
46.1667
46.1708
46.1753
46.1804
46.1859
46.1919
46.1983
46.2052
46.2125
46.2203
46.2285
46.2371
46.2461
46.2556
46.2654
46.2756
46.2862
46.2971
46.3084
46.3201
46.3321
46.3445
46.3572
46.3702
46.3835
46.3971
46.411
46.4252
46.4396
46.4544
46.4694
46.4846
46.5001
46.5158
46.5317
46.5478
46.5642
46.5807
46.5974
46.6143
46.6314
46.6486
46.6659
46.6834
46.7011
46.7188
46.7367
46.7546
46.7727
46.7908
46.809
46.8273
46.8457
46.8641
46.8825
46.9009
46.9194
46.9379
46.9564
46.9749
46.9934
47.0119
47.0303
47.0487
47.0671
47.0854
47.1037
47.1218
47.1399
47.158
47.1759
47.1937
47.2115
47.2291
47.2465
47.2639
47.2811
47.2982
47.3151
47.3319
47.3485
47.365
47.3812
47.3973
47.4132
47.4289
47.4444
47.4596
47.4747
47.4895
47.5042
47.5185
47.5327
47.5466
47.5603
47.5737
47.5868
47.5997
47.6123
47.6246
47.6367
47.6485
47.66
47.6712
47.6821
47.6927
47.703
47.713
47.7227
47.7321
47.7411
47.7499
47.7583
47.7664
47.7741
47.7815
47.7886
47.7954
47.8018
47.8078
47.8135
47.8189
47.8239
47.8286
47.8329
47.8369
47.8405
47.8438
47.8466
47.8492
47.8514
47.8532
47.8546
47.8557
47.8564
47.8568
50.7844
50.7831
50.7803
50.7764
50.7714
50.7655
50.7587
50.7512
50.7429
50.7339
50.7241
50.7137
50.7026
50.6908
50.6782
50.6649
50.6508
50.636
50.6205
50.6043
50.5873
50.5696
50.5511
50.5319
50.5121
50.4915
50.4702
50.4481
50.4255
50.4021
50.378
50.3533
50.3279
50.3019
50.2753
50.248
50.2201
50.1916
50.1625
50.1328
50.1025
50.0717
50.0403
50.0084
49.9759
49.9429
49.9095
49.8755
49.841
49.8061
49.7708
49.7349
49.6987
49.662
49.625
49.5875
49.5497
49.5116
49.473
49.4342
49.395
49.3555
49.3158
49.2757
49.2354
49.1949
49.1541
49.1131
49.0719
49.0305
48.989
48.9473
48.9054
48.8634
48.8213
48.7792
48.7369
48.6945
48.6521
48.6097
48.5672
48.5248
48.4823
48.4399
48.3975
48.3551
48.3128
48.2706
48.2285
48.1865
48.1446
48.1028
48.0612
48.0197
47.9784
47.9373
47.8964
47.8558
47.8153
47.7751
47.7352
47.6955
47.6561
47.6169
47.5781
47.5396
47.5014
47.4636
47.4261
47.389
47.3522
47.3158
47.2798
47.2442
47.2091
47.1743
47.14
47.1061
47.0727
47.0397
47.0072
46.9751
46.9436
46.9125
46.882
46.8519
46.8224
46.7934
46.7649
46.7369
46.7095
46.6826
46.6563
46.6305
46.6053
46.5806
46.5565
46.533
46.5101
46.4878
46.466
46.4448
46.4243
46.4043
46.3849
46.3661
46.3479
46.3303
46.3133
46.2969
46.2812
46.266
46.2514
46.2375
46.2241
46.2114
46.1992
46.1877
46.1767
46.1664
46.1567
46.1475
46.139
46.131
46.1237
46.1169
46.1107
46.1051
46.1001
46.0956
46.0917
46.0884
46.0857
46.0835
46.0818
46.0807
46.0802
46.0802
46.0807
46.0817
46.0833
46.0854
46.088
46.0911
46.0947
46.0988
46.1033
46.1084
46.1139
46.1199
46.1263
46.1332
46.1405
46.1483
46.1565
46.1651
46.1741
46.1835
46.1934
46.2036
46.2141
46.2251
46.2364
46.2481
46.2601
46.2724
46.2851
46.2981
46.3114
46.325
46.3389
46.3531
46.3675
46.3823
46.3973
46.4125
46.4279
46.4436
46.4596
46.4757
46.492
46.5085
46.5252
46.5421
46.5592
46.5764
46.5937
46.6112
46.6288
46.6465
46.6644
46.6823
46.7004
46.7185
46.7367
46.755
46.7733
46.7917
46.8101
46.8286
46.847
46.8655
46.884
46.9025
46.921
46.9394
46.9578
46.9762
46.9946
47.0129
47.0311
47.0493
47.0674
47.0854
47.1033
47.1211
47.1388
47.1564
47.1739
47.1912
47.2084
47.2255
47.2424
47.2592
47.2758
47.2922
47.3085
47.3245
47.3404
47.3561
47.3715
47.3868
47.4019
47.4167
47.4313
47.4457
47.4598
47.4737
47.4874
47.5007
47.5139
47.5268
47.5394
47.5517
47.5637
47.5755
47.587
47.5982
47.6091
47.6197
47.63
47.64
47.6497
47.659
47.6681
47.6768
47.6852
47.6933
47.701
47.7084
47.7155
47.7223
47.7287
47.7347
47.7404
47.7458
47.7508
47.7555
47.7598
47.7638
47.7674
47.7706
47.7735
47.776
47.7782
47.78
47.7815
47.7826
47.7833
47.7836
50.7452
50.744
50.7413
50.7375
50.7325
50.7267
50.72
50.7125
50.7042
50.6952
50.6855
50.6751
50.6639
50.652
50.6394
50.6261
50.612
50.5972
50.5816
50.5653
50.5483
50.5306
50.5121
50.4929
50.473
50.4523
50.431
50.409
50.3863
50.3629
50.3388
50.3141
50.2887
50.2627
50.236
50.2087
50.1808
50.1523
50.1231
50.0934
50.0632
50.0323
50.0009
49.969
49.9365
49.9036
49.8701
49.8361
49.8016
49.7667
49.7313
49.6955
49.6593
49.6226
49.5856
49.5481
49.5103
49.4721
49.4336
49.3947
49.3555
49.3161
49.2763
49.2362
49.1959
49.1554
49.1146
49.0736
49.0324
48.991
48.9495
48.9078
48.8659
48.8239
48.7818
48.7396
48.6974
48.655
48.6126
48.5702
48.5277
48.4852
48.4428
48.4003
48.3579
48.3156
48.2733
48.231
48.1889
48.1469
48.105
48.0632
48.0216
47.9801
47.9389
47.8978
47.8569
47.8162
47.7757
47.7355
47.6956
47.6559
47.6165
47.5773
47.5385
47.5
47.4618
47.424
47.3865
47.3494
47.3126
47.2762
47.2402
47.2047
47.1695
47.1347
47.1004
47.0665
47.0331
47.0001
46.9676
46.9356
46.904
46.8729
46.8424
46.8123
46.7828
46.7538
46.7253
46.6973
46.6699
46.643
46.6167
46.5909
46.5657
46.5411
46.517
46.4935
46.4706
46.4482
46.4265
46.4053
46.3847
46.3647
46.3453
46.3265
46.3084
46.2908
46.2738
46.2574
46.2416
46.2265
46.2119
46.1979
46.1846
46.1718
46.1597
46.1482
46.1372
46.1269
46.1172
46.108
46.0995
46.0915
46.0842
46.0774
46.0712
46.0656
46.0606
46.0562
46.0523
46.049
46.0462
46.044
46.0424
46.0413
46.0407
46.0407
46.0413
46.0423
46.0439
46.046
46.0486
46.0517
46.0553
46.0594
46.0639
46.069
46.0745
46.0805
46.0869
46.0938
46.1012
46.1089
46.1171
46.1257
46.1348
46.1442
46.154
46.1642
46.1748
46.1857
46.1971
46.2087
46.2207
46.2331
46.2458
46.2588
46.2721
46.2857
46.2996
46.3138
46.3282
46.343
46.3579
46.3732
46.3886
46.4043
46.4202
46.4364
46.4527
46.4692
46.4859
46.5028
46.5199
46.5371
46.5544
46.5719
46.5895
46.6073
46.6251
46.6431
46.6611
46.6792
46.6974
46.7157
46.734
46.7524
46.7708
46.7893
46.8077
46.8262
46.8447
46.8632
46.8817
46.9001
46.9185
46.9369
46.9553
46.9736
46.9918
47.01
47.0281
47.0461
47.064
47.0818
47.0995
47.1171
47.1346
47.1519
47.1691
47.1862
47.2031
47.2199
47.2365
47.2529
47.2691
47.2852
47.3011
47.3167
47.3322
47.3475
47.3625
47.3774
47.392
47.4063
47.4205
47.4344
47.448
47.4614
47.4745
47.4874
47.5
47.5123
47.5244
47.5362
47.5476
47.5588
47.5697
47.5803
47.5906
47.6006
47.6103
47.6196
47.6287
47.6374
47.6458
47.6539
47.6616
47.6691
47.6761
47.6829
47.6893
47.6953
47.701
47.7064
47.7114
47.7161
47.7204
47.7244
47.728
47.7312
47.7341
47.7366
47.7388
47.7406
47.7421
47.7432
47.7439
47.7443
50.6782
50.6769
50.6742
50.6703
50.6653
50.6593
50.6524
50.6448
50.6364
50.6272
50.6174
50.6068
50.5955
50.5835
50.5708
50.5573
50.5432
50.5283
50.5127
50.4963
50.4792
50.4614
50.4429
50.4237
50.4038
50.3831
50.3618
50.3397
50.317
50.2936
50.2695
50.2448
50.2194
50.1934
50.1667
50.1394
50.1115
50.083
50.0538
50.0241
49.9939
49.963
49.9317
49.8997
49.8673
49.8343
49.8008
49.7669
49.7324
49.6975
49.6621
49.6263
49.5901
49.5535
49.5164
49.479
49.4412
49.403
49.3645
49.3256
49.2865
49.247
49.2073
49.1672
49.1269
49.0864
49.0456
49.0047
48.9635
48.9221
48.8806
48.8389
48.797
48.7551
48.713
48.6708
48.6286
48.5862
48.5438
48.5014
48.459
48.4165
48.3741
48.3317
48.2893
48.2469
48.2047
48.1625
48.1203
48.0783
48.0365
47.9947
47.9531
47.9117
47.8704
47.8293
47.7885
47.7478
47.7074
47.6672
47.6272
47.5876
47.5482
47.5091
47.4703
47.4318
47.3936
47.3558
47.3183
47.2812
47.2445
47.2081
47.1721
47.1366
47.1014
47.0667
47.0324
46.9985
46.9651
46.9321
46.8996
46.8676
46.8361
46.805
46.7745
46.7445
46.7149
46.6859
46.6575
46.6295
46.6021
46.5752
46.5489
46.5232
46.498
46.4734
46.4493
46.4258
46.4029
46.3806
46.3588
46.3377
46.3171
46.2972
46.2778
46.259
46.2408
46.2233
46.2063
46.1899
46.1742
46.159
46.1445
46.1305
46.1172
46.1045
46.0923
46.0808
46.0699
46.0596
46.0498
46.0407
46.0322
46.0242
46.0169
46.0101
46.004
45.9984
45.9934
45.9889
45.985
45.9817
45.979
45.9768
45.9752
45.9741
45.9736
45.9736
45.9741
45.9752
45.9767
45.9788
45.9814
45.9846
45.9882
45.9923
45.9968
46.0019
46.0074
46.0134
46.0199
46.0267
46.0341
46.0419
46.0501
46.0587
46.0677
46.0771
46.0869
46.0972
46.1077
46.1187
46.13
46.1417
46.1537
46.1661
46.1787
46.1917
46.205
46.2186
46.2325
46.2467
46.2612
46.2759
46.2909
46.3061
46.3216
46.3373
46.3532
46.3693
46.3856
46.4022
46.4189
46.4357
46.4528
46.47
46.4873
46.5048
46.5224
46.5402
46.558
46.576
46.594
46.6121
46.6303
46.6486
46.6669
46.6853
46.7037
46.7221
46.7406
46.7591
46.7775
46.796
46.8145
46.8329
46.8514
46.8698
46.8881
46.9064
46.9246
46.9428
46.9609
46.9789
46.9968
47.0146
47.0323
47.0499
47.0673
47.0847
47.1019
47.1189
47.1358
47.1526
47.1692
47.1856
47.2018
47.2179
47.2337
47.2494
47.2649
47.2801
47.2952
47.31
47.3246
47.339
47.3531
47.367
47.3806
47.394
47.4071
47.42
47.4326
47.4449
47.4569
47.4687
47.4802
47.4914
47.5023
47.5129
47.5231
47.5331
47.5428
47.5522
47.5612
47.5699
47.5783
47.5864
47.5941
47.6016
47.6086
47.6154
47.6218
47.6278
47.6335
47.6389
47.6439
47.6486
47.6529
47.6568
47.6604
47.6637
47.6666
47.6691
47.6713
47.6731
47.6745
47.6756
47.6763
47.6767
50.6335
50.6323
50.6296
50.6258
50.6209
50.615
50.6082
50.6006
50.5922
50.5831
50.5733
50.5627
50.5514
50.5393
50.5266
50.5131
50.4989
50.484
50.4683
50.4519
50.4348
50.417
50.3984
50.3792
50.3592
50.3385
50.3172
50.2951
50.2723
50.2489
50.2248
50.2
50.1746
50.1486
50.1219
50.0946
50.0666
50.0381
50.009
49.9793
49.949
49.9181
49.8867
49.8548
49.8223
49.7893
49.7558
49.7219
49.6874
49.6525
49.6171
49.5813
49.545
49.5084
49.4713
49.4339
49.3961
49.3579
49.3193
49.2805
49.2413
49.2018
49.1621
49.122
49.0817
49.0412
49.0004
48.9594
48.9182
48.8769
48.8353
48.7936
48.7518
48.7098
48.6677
48.6255
48.5832
48.5409
48.4985
48.4561
48.4136
48.3712
48.3287
48.2863
48.2439
48.2015
48.1592
48.117
48.0749
48.0329
47.991
47.9492
47.9076
47.8662
47.8249
47.7838
47.7429
47.7023
47.6618
47.6216
47.5817
47.542
47.5026
47.4635
47.4247
47.3862
47.348
47.3102
47.2727
47.2356
47.1989
47.1625
47.1265
47.0909
47.0558
47.021
46.9867
46.9529
46.9194
46.8865
46.854
46.822
46.7904
46.7594
46.7288
46.6988
46.6693
46.6403
46.6118
46.5838
46.5564
46.5296
46.5033
46.4775
46.4523
46.4277
46.4036
46.3801
46.3572
46.3349
46.3132
46.292
46.2714
46.2515
46.2321
46.2133
46.1952
46.1776
46.1606
46.1443
46.1285
46.1134
46.0988
46.0849
46.0715
46.0588
46.0467
46.0352
46.0242
46.0139
46.0042
45.9951
45.9866
45.9786
45.9713
45.9645
45.9584
45.9528
45.9478
45.9433
45.9395
45.9362
45.9334
45.9313
45.9296
45.9286
45.928
45.928
45.9286
45.9296
45.9312
45.9333
45.9359
45.9391
45.9427
45.9468
45.9514
45.9564
45.962
45.9679
45.9744
45.9813
45.9886
45.9964
46.0046
46.0132
46.0223
46.0317
46.0415
46.0518
46.0624
46.0733
46.0846
46.0963
46.1083
46.1207
46.1334
46.1464
46.1597
46.1733
46.1872
46.2014
46.2159
46.2306
46.2456
46.2608
46.2763
46.292
46.3079
46.324
46.3404
46.3569
46.3736
46.3905
46.4075
46.4247
46.4421
46.4596
46.4772
46.4949
46.5128
46.5307
46.5488
46.5669
46.5851
46.6034
46.6217
46.6401
46.6585
46.6769
46.6954
46.7139
46.7324
46.7509
46.7693
46.7878
46.8062
46.8246
46.8429
46.8612
46.8794
46.8976
46.9157
46.9337
46.9516
46.9694
46.9871
47.0047
47.0222
47.0395
47.0567
47.0738
47.0907
47.1074
47.124
47.1404
47.1567
47.1727
47.1886
47.2043
47.2197
47.235
47.25
47.2649
47.2795
47.2938
47.308
47.3218
47.3355
47.3489
47.362
47.3749
47.3875
47.3998
47.4118
47.4236
47.4351
47.4462
47.4571
47.4677
47.478
47.488
47.4977
47.507
47.5161
47.5248
47.5332
47.5413
47.549
47.5564
47.5635
47.5702
47.5766
47.5827
47.5884
47.5938
47.5988
47.6034
47.6077
47.6117
47.6153
47.6186
47.6214
47.624
47.6261
47.628
47.6294
47.6305
47.6312
47.6316
50.57
50.5687
50.5661
50.5623
50.5573
50.5514
50.5446
50.537
50.5285
50.5193
50.5094
50.4987
50.4873
50.4752
50.4624
50.4488
50.4345
50.4195
50.4038
50.3874
50.3702
50.3523
50.3337
50.3144
50.2944
50.2737
50.2523
50.2302
50.2075
50.184
50.1599
50.1351
50.1097
50.0836
50.0569
50.0296
50.0016
49.9731
49.944
49.9142
49.8839
49.8531
49.8217
49.7897
49.7573
49.7243
49.6908
49.6568
49.6223
49.5874
49.552
49.5162
49.48
49.4433
49.4062
49.3688
49.331
49.2928
49.2543
49.2154
49.1762
49.1368
49.097
49.057
49.0167
48.9761
48.9353
48.8944
48.8532
48.8118
48.7702
48.7285
48.6867
48.6447
48.6026
48.5604
48.5182
48.4758
48.4334
48.391
48.3486
48.3061
48.2637
48.2212
48.1788
48.1365
48.0942
48.052
48.0099
47.9679
47.926
47.8842
47.8426
47.8012
47.7599
47.7188
47.678
47.6373
47.5969
47.5567
47.5167
47.4771
47.4377
47.3986
47.3598
47.3213
47.2831
47.2453
47.2078
47.1707
47.134
47.0976
47.0616
47.0261
46.9909
46.9562
46.9219
46.888
46.8546
46.8216
46.7892
46.7571
46.7256
46.6946
46.664
46.634
46.6045
46.5755
46.547
46.5191
46.4917
46.4648
46.4385
46.4128
46.3876
46.363
46.3389
46.3155
46.2926
46.2702
46.2485
46.2274
46.2068
46.1869
46.1675
46.1487
46.1306
46.113
46.0961
46.0797
46.064
46.0488
46.0343
46.0204
46.007
45.9943
45.9822
45.9707
45.9598
45.9495
45.9398
45.9307
45.9221
45.9142
45.9069
45.9001
45.894
45.8884
45.8834
45.879
45.8751
45.8718
45.8691
45.867
45.8653
45.8643
45.8637
45.8638
45.8643
45.8654
45.867
45.8691
45.8717
45.8748
45.8785
45.8826
45.8872
45.8922
45.8978
45.9038
45.9103
45.9172
45.9245
45.9323
45.9405
45.9491
45.9582
45.9676
45.9775
45.9877
45.9983
46.0092
46.0206
46.0323
46.0443
46.0567
46.0693
46.0824
46.0957
46.1093
46.1232
46.1374
46.1519
46.1666
46.1816
46.1968
46.2123
46.228
46.2439
46.2601
46.2764
46.2929
46.3096
46.3265
46.3436
46.3608
46.3781
46.3956
46.4133
46.431
46.4488
46.4668
46.4848
46.503
46.5212
46.5394
46.5578
46.5761
46.5946
46.613
46.6315
46.65
46.6684
46.6869
46.7054
46.7239
46.7423
46.7607
46.779
46.7973
46.8155
46.8337
46.8518
46.8698
46.8877
46.9055
46.9232
46.9408
46.9582
46.9756
46.9928
47.0098
47.0267
47.0435
47.0601
47.0765
47.0927
47.1088
47.1247
47.1403
47.1558
47.171
47.1861
47.2009
47.2155
47.2299
47.244
47.2579
47.2715
47.2849
47.298
47.3109
47.3235
47.3358
47.3478
47.3596
47.3711
47.3823
47.3932
47.4037
47.414
47.424
47.4337
47.443
47.4521
47.4608
47.4692
47.4773
47.485
47.4924
47.4995
47.5062
47.5126
47.5187
47.5244
47.5297
47.5348
47.5394
47.5437
47.5477
47.5513
47.5545
47.5574
47.56
47.5621
47.5639
47.5654
47.5665
47.5672
47.5676
50.5216
50.5203
50.5177
50.514
50.5092
50.5034
50.4966
50.489
50.4806
50.4715
50.4615
50.4509
50.4395
50.4273
50.4145
50.4009
50.3866
50.3715
50.3558
50.3393
50.3221
50.3042
50.2856
50.2662
50.2462
50.2254
50.204
50.1819
50.1591
50.1356
50.1114
50.0866
50.0612
50.0351
50.0084
49.981
49.953
49.9245
49.8953
49.8656
49.8352
49.8044
49.7729
49.741
49.7085
49.6755
49.6419
49.6079
49.5735
49.5385
49.5031
49.4673
49.431
49.3943
49.3572
49.3198
49.2819
49.2437
49.2052
49.1663
49.1271
49.0876
49.0478
49.0078
48.9675
48.9269
48.8861
48.8451
48.8039
48.7625
48.7209
48.6792
48.6373
48.5953
48.5532
48.511
48.4688
48.4264
48.384
48.3416
48.2991
48.2566
48.2141
48.1717
48.1293
48.0869
48.0446
48.0024
47.9603
47.9182
47.8763
47.8346
47.7929
47.7515
47.7102
47.6691
47.6282
47.5875
47.5471
47.5069
47.4669
47.4272
47.3878
47.3487
47.3099
47.2714
47.2332
47.1954
47.1579
47.1208
47.084
47.0476
47.0117
46.9761
46.9409
46.9062
46.8719
46.838
46.8046
46.7716
46.7391
46.7071
46.6755
46.6445
46.614
46.5839
46.5544
46.5254
46.4969
46.469
46.4416
46.4147
46.3884
46.3627
46.3375
46.3128
46.2888
46.2653
46.2424
46.2201
46.1984
46.1772
46.1567
46.1367
46.1173
46.0986
46.0804
46.0629
46.0459
46.0296
46.0138
45.9987
45.9841
45.9702
45.9569
45.9442
45.9321
45.9206
45.9096
45.8993
45.8896
45.8805
45.872
45.8641
45.8568
45.8501
45.8439
45.8383
45.8333
45.8289
45.8251
45.8218
45.8191
45.8169
45.8153
45.8143
45.8137
45.8138
45.8143
45.8154
45.817
45.8191
45.8218
45.8249
45.8285
45.8326
45.8372
45.8423
45.8479
45.8539
45.8604
45.8673
45.8746
45.8824
45.8907
45.8993
45.9084
45.9178
45.9277
45.9379
45.9485
45.9595
45.9708
45.9825
45.9946
46.0069
46.0196
46.0326
46.046
46.0596
46.0735
46.0877
46.1022
46.117
46.132
46.1472
46.1627
46.1784
46.1943
46.2105
46.2268
46.2434
46.2601
46.277
46.294
46.3113
46.3286
46.3461
46.3638
46.3815
46.3994
46.4173
46.4354
46.4535
46.4717
46.49
46.5083
46.5267
46.5451
46.5636
46.5821
46.6006
46.619
46.6375
46.656
46.6745
46.6929
46.7113
46.7297
46.7479
46.7662
46.7843
46.8024
46.8204
46.8384
46.8562
46.8739
46.8915
46.9089
46.9263
46.9435
46.9606
46.9775
46.9942
47.0108
47.0272
47.0435
47.0595
47.0754
47.0911
47.1065
47.1218
47.1368
47.1517
47.1663
47.1806
47.1948
47.2087
47.2223
47.2357
47.2488
47.2617
47.2743
47.2866
47.2986
47.3104
47.3219
47.3331
47.344
47.3545
47.3648
47.3748
47.3845
47.3938
47.4029
47.4116
47.42
47.4281
47.4358
47.4432
47.4503
47.457
47.4634
47.4695
47.4752
47.4806
47.4856
47.4902
47.4946
47.4985
47.5021
47.5054
47.5083
47.5108
47.513
47.5148
47.5162
47.5173
47.518
47.5184
50.4604
50.4592
50.4566
50.4529
50.4481
50.4423
50.4356
50.428
50.4196
50.4104
50.4004
50.3897
50.3782
50.366
50.3531
50.3395
50.3251
50.31
50.2942
50.2777
50.2604
50.2425
50.2238
50.2044
50.1844
50.1636
50.1421
50.1199
50.0971
50.0736
50.0494
50.0246
49.9991
49.973
49.9462
49.9189
49.8909
49.8623
49.8331
49.8033
49.773
49.7421
49.7106
49.6787
49.6462
49.6131
49.5796
49.5456
49.5111
49.4761
49.4407
49.4048
49.3686
49.3319
49.2948
49.2573
49.2194
49.1812
49.1427
49.1038
49.0646
49.0251
48.9853
48.9452
48.9049
48.8643
48.8235
48.7825
48.7412
48.6998
48.6583
48.6165
48.5746
48.5326
48.4905
48.4483
48.406
48.3637
48.3212
48.2788
48.2363
48.1938
48.1513
48.1089
48.0664
48.0241
47.9818
47.9395
47.8974
47.8554
47.8134
47.7717
47.73
47.6886
47.6473
47.6062
47.5653
47.5246
47.4841
47.4439
47.404
47.3643
47.3248
47.2857
47.2469
47.2084
47.1702
47.1324
47.0949
47.0577
47.021
46.9846
46.9486
46.913
46.8779
46.8431
46.8088
46.7749
46.7415
46.7085
46.6761
46.644
46.6125
46.5814
46.5509
46.5209
46.4913
46.4623
46.4339
46.4059
46.3785
46.3517
46.3253
46.2996
46.2744
46.2498
46.2257
46.2023
46.1794
46.1571
46.1353
46.1142
46.0936
46.0737
46.0543
46.0356
46.0174
45.9999
45.9829
45.9666
45.9508
45.9357
45.9212
45.9073
45.8939
45.8812
45.8691
45.8576
45.8467
45.8364
45.8267
45.8177
45.8092
45.8012
45.7939
45.7872