/*--------------------------------*- C++ -*----------------------------------*\
| =========                 |                                                 |
| \\      /  F ield         | OpenFOAM: The Open Source CFD Toolbox           |
|  \\    /   O peration     | Version:  2212                                  |
|   \\  /    A nd           | Website:  www.openfoam.com                      |
|    \\/     M anipulation  |                                                 |
\*---------------------------------------------------------------------------*/
FoamFile
{
    version     2.0;
    format      ascii;
    arch        "LSB;label=32;scalar=64";
    class       volScalarField;
    location    "1000";
    object      p_rgh_0;
}
// * * * * * * * * * * * * * * * * * * * * * * * * * * * * * * * * * * * * * //

dimensions      [1 -1 -2 0 0 0 0];

internalField   nonuniform List<scalar> 
204800
(
51.069
51.0689
51.0677
51.0662
51.0636
51.0603
51.0559
51.0505
51.0441
51.0366
51.0281
51.0186
51.0082
50.997
50.9848
50.9719
50.9581
50.9435
50.9282
50.9121
50.8952
50.8775
50.8592
50.84
50.8202
50.7996
50.7783
50.7563
50.7336
50.7102
50.6862
50.6614
50.636
50.61
50.5833
50.556
50.528
50.4995
50.4703
50.4406
50.4102
50.3793
50.3479
50.3159
50.2834
50.2503
50.2168
50.1827
50.1482
50.1132
50.0778
50.0419
50.0055
49.9688
49.9317
49.8941
49.8562
49.8179
49.7793
49.7404
49.7011
49.6615
49.6217
49.5815
49.5411
49.5005
49.4596
49.4185
49.3772
49.3357
49.294
49.2522
49.2102
49.1682
49.1259
49.0836
49.0412
48.9988
48.9563
48.9137
48.8712
48.8286
48.786
48.7434
48.7009
48.6584
48.616
48.5737
48.5314
48.4893
48.4472
48.4054
48.3636
48.322
48.2806
48.2394
48.1984
48.1576
48.117
48.0767
48.0366
47.9968
47.9572
47.918
47.8791
47.8404
47.8021
47.7641
47.7265
47.6893
47.6524
47.6159
47.5798
47.544
47.5087
47.4739
47.4394
47.4054
47.3718
47.3387
47.3061
47.2739
47.2423
47.2111
47.1804
47.1502
47.1205
47.0914
47.0628
47.0347
47.0071
46.9801
46.9537
46.9278
46.9024
46.8777
46.8535
46.8299
46.8068
46.7843
46.7625
46.7412
46.7205
46.7004
46.6809
46.662
46.6437
46.6259
46.6088
46.5923
46.5765
46.5612
46.5465
46.5324
46.519
46.5061
46.4938
46.4822
46.4711
46.4607
46.4509
46.4416
46.433
46.4249
46.4174
46.4106
46.4043
46.3986
46.3934
46.3889
46.3849
46.3815
46.3786
46.3763
46.3746
46.3734
46.3728
46.3727
46.3731
46.374
46.3755
46.3775
46.38
46.383
46.3865
46.3905
46.395
46.4
46.4054
46.4113
46.4177
46.4245
46.4317
46.4394
46.4475
46.456
46.465
46.4743
46.4841
46.4942
46.5047
46.5156
46.5268
46.5384
46.5503
46.5626
46.5752
46.5882
46.6014
46.6149
46.6288
46.6429
46.6573
46.6719
46.6868
46.702
46.7174
46.733
46.7489
46.765
46.7812
46.7977
46.8143
46.8312
46.8482
46.8653
46.8826
46.9
46.9176
46.9353
46.9531
46.971
46.989
47.0071
47.0252
47.0434
47.0617
47.0801
47.0984
47.1168
47.1353
47.1537
47.1722
47.1906
47.209
47.2275
47.2458
47.2642
47.2825
47.3008
47.319
47.3371
47.3552
47.3731
47.391
47.4088
47.4265
47.444
47.4615
47.4788
47.496
47.513
47.5299
47.5466
47.5632
47.5796
47.5958
47.6119
47.6277
47.6434
47.6588
47.6741
47.6891
47.7039
47.7185
47.7328
47.747
47.7608
47.7745
47.7878
47.801
47.8138
47.8264
47.8387
47.8507
47.8625
47.874
47.8852
47.896
47.9066
47.9169
47.9269
47.9365
47.9459
47.9549
47.9637
47.9721
47.9801
47.9879
47.9953
48.0023
48.0091
48.0155
48.0215
48.0272
48.0326
48.0376
48.0423
48.0466
48.0505
48.0541
48.0574
48.0603
48.0628
48.065
48.0668
48.0682
48.0693
48.07
48.0704
50.9806
50.9795
50.9773
50.9743
50.9702
50.9654
50.9596
50.9531
50.9457
50.9375
50.9285
50.9187
50.908
50.8966
50.8844
50.8713
50.8575
50.843
50.8276
50.8115
50.7946
50.777
50.7586
50.7395
50.7197
50.6992
50.6779
50.656
50.6333
50.61
50.5859
50.5612
50.5359
50.5099
50.4832
50.456
50.4281
50.3995
50.3704
50.3407
50.3105
50.2796
50.2482
50.2163
50.1838
50.1509
50.1174
50.0834
50.0489
50.014
49.9786
49.9428
49.9065
49.8698
49.8328
49.7953
49.7575
49.7193
49.6807
49.6418
49.6026
49.5631
49.5233
49.4833
49.4429
49.4024
49.3616
49.3205
49.2793
49.2379
49.1963
49.1546
49.1127
49.0707
49.0285
48.9863
48.944
48.9016
48.8592
48.8167
48.7742
48.7317
48.6892
48.6467
48.6043
48.5619
48.5195
48.4773
48.4351
48.393
48.3511
48.3093
48.2676
48.2261
48.1848
48.1436
48.1027
48.062
48.0215
47.9812
47.9412
47.9015
47.862
47.8228
47.7839
47.7454
47.7071
47.6692
47.6317
47.5945
47.5577
47.5212
47.4852
47.4495
47.4143
47.3795
47.3451
47.3112
47.2777
47.2446
47.212
47.1799
47.1483
47.1172
47.0866
47.0564
47.0268
46.9977
46.9692
46.9411
46.9136
46.8867
46.8603
46.8344
46.8092
46.7844
46.7603
46.7367
46.7137
46.6913
46.6694
46.6482
46.6275
46.6075
46.588
46.5691
46.5508
46.5332
46.5161
46.4996
46.4838
46.4685
46.4539
46.4398
46.4264
46.4136
46.4013
46.3897
46.3787
46.3682
46.3584
46.3492
46.3406
46.3325
46.3251
46.3182
46.3119
46.3062
46.3011
46.2966
46.2926
46.2892
46.2863
46.2841
46.2823
46.2811
46.2805
46.2804
46.2808
46.2818
46.2832
46.2852
46.2877
46.2907
46.2942
46.2982
46.3027
46.3077
46.3131
46.319
46.3253
46.3321
46.3393
46.347
46.3551
46.3636
46.3726
46.3819
46.3916
46.4017
46.4122
46.4231
46.4343
46.4459
46.4578
46.47
46.4826
46.4955
46.5087
46.5223
46.5361
46.5502
46.5645
46.5791
46.594
46.6092
46.6246
46.6402
46.656
46.672
46.6883
46.7047
46.7213
46.7381
46.7551
46.7722
46.7895
46.8069
46.8244
46.842
46.8598
46.8777
46.8956
46.9137
46.9318
46.95
46.9683
46.9866
47.0049
47.0233
47.0417
47.0601
47.0785
47.0969
47.1153
47.1337
47.152
47.1704
47.1886
47.2069
47.225
47.2431
47.2612
47.2791
47.2969
47.3147
47.3323
47.3499
47.3673
47.3846
47.4017
47.4187
47.4356
47.4523
47.4688
47.4852
47.5014
47.5174
47.5332
47.5488
47.5643
47.5795
47.5945
47.6093
47.6238
47.6382
47.6522
47.6661
47.6797
47.693
47.7061
47.719
47.7315
47.7438
47.7558
47.7676
47.779
47.7902
47.801
47.8116
47.8219
47.8318
47.8415
47.8508
47.8598
47.8685
47.8769
47.885
47.8927
47.9001
47.9071
47.9139
47.9202
47.9263
47.932
47.9373
47.9423
47.947
47.9513
47.9552
47.9588
47.9621
47.965
47.9675
47.9696
47.9715
47.9729
47.974
47.9747
47.9751
50.9618
50.9608
50.9586
50.9556
50.9515
50.9467
50.9409
50.9343
50.9269
50.9187
50.9097
50.8998
50.8892
50.8777
50.8655
50.8524
50.8386
50.824
50.8086
50.7925
50.7756
50.758
50.7396
50.7205
50.7007
50.6801
50.6589
50.6369
50.6142
50.5909
50.5669
50.5422
50.5168
50.4908
50.4641
50.4369
50.409
50.3805
50.3514
50.3217
50.2914
50.2605
50.2292
50.1972
50.1648
50.1318
50.0983
50.0643
50.0298
49.9949
49.9595
49.9237
49.8874
49.8508
49.8137
49.7762
49.7384
49.7002
49.6617
49.6228
49.5836
49.5441
49.5043
49.4642
49.4239
49.3833
49.3425
49.3015
49.2603
49.2189
49.1773
49.1356
49.0937
49.0517
49.0095
48.9673
48.925
48.8826
48.8402
48.7977
48.7552
48.7127
48.6702
48.6277
48.5853
48.5429
48.5006
48.4583
48.4161
48.3741
48.3321
48.2903
48.2487
48.2072
48.1658
48.1247
48.0838
48.043
48.0025
47.9623
47.9223
47.8825
47.8431
47.8039
47.765
47.7265
47.6883
47.6504
47.6128
47.5756
47.5388
47.5024
47.4663
47.4307
47.3955
47.3606
47.3263
47.2923
47.2588
47.2258
47.1932
47.1611
47.1295
47.0984
47.0677
47.0376
47.008
46.9789
46.9504
46.9223
46.8948
46.8679
46.8415
46.8156
46.7904
46.7656
46.7415
46.7179
46.6949
46.6725
46.6507
46.6294
46.6088
46.5887
46.5692
46.5504
46.5321
46.5144
46.4974
46.4809
46.465
46.4498
46.4351
46.4211
46.4077
46.3948
46.3826
46.371
46.3599
46.3495
46.3397
46.3305
46.3218
46.3138
46.3064
46.2995
46.2932
46.2875
46.2824
46.2779
46.2739
46.2705
46.2676
46.2653
46.2636
46.2624
46.2618
46.2617
46.2621
46.2631
46.2645
46.2665
46.269
46.272
46.2755
46.2795
46.284
46.289
46.2944
46.3003
46.3066
46.3134
46.3206
46.3283
46.3364
46.3449
46.3538
46.3632
46.3729
46.383
46.3935
46.4043
46.4156
46.4271
46.4391
46.4513
46.4639
46.4768
46.49
46.5035
46.5173
46.5314
46.5458
46.5604
46.5753
46.5904
46.6058
46.6214
46.6372
46.6533
46.6695
46.686
46.7026
46.7194
46.7363
46.7534
46.7707
46.7881
46.8056
46.8233
46.841
46.8589
46.8769
46.8949
46.913
46.9312
46.9495
46.9678
46.9861
47.0045
47.0229
47.0413
47.0597
47.0781
47.0965
47.1149
47.1332
47.1515
47.1698
47.188
47.2062
47.2243
47.2423
47.2603
47.2781
47.2958
47.3135
47.331
47.3484
47.3657
47.3829
47.3999
47.4167
47.4334
47.4499
47.4663
47.4825
47.4985
47.5143
47.5299
47.5454
47.5606
47.5756
47.5904
47.6049
47.6192
47.6333
47.6472
47.6608
47.6741
47.6872
47.7
47.7126
47.7249
47.7369
47.7486
47.7601
47.7712
47.7821
47.7927
47.8029
47.8129
47.8225
47.8319
47.8409
47.8496
47.858
47.866
47.8737
47.8811
47.8882
47.8949
47.9013
47.9073
47.913
47.9184
47.9234
47.928
47.9323
47.9363
47.9399
47.9431
47.946
47.9485
47.9507
47.9525
47.9539
47.955
47.9557
47.9561
50.8829
50.8816
50.879
50.8753
50.8706
50.8649
50.8585
50.8512
50.8433
50.8346
50.8252
50.815
50.8041
50.7925
50.7801
50.7669
50.753
50.7384
50.723
50.7068
50.6899
50.6723
50.6539
50.6348
50.615
50.5944
50.5732
50.5512
50.5286
50.5052
50.4812
50.4566
50.4312
50.4053
50.3786
50.3514
50.3235
50.295
50.266
50.2363
50.2061
50.1753
50.1439
50.112
50.0796
50.0466
50.0132
49.9793
49.9448
49.91
49.8746
49.8388
49.8026
49.766
49.729
49.6915
49.6538
49.6156
49.5771
49.5383
49.4991
49.4597
49.4199
49.3799
49.3397
49.2991
49.2584
49.2174
49.1763
49.1349
49.0934
49.0517
49.0098
48.9679
48.9258
48.8836
48.8414
48.7991
48.7567
48.7143
48.6718
48.6294
48.5869
48.5445
48.5021
48.4598
48.4175
48.3753
48.3332
48.2912
48.2493
48.2076
48.1659
48.1245
48.0832
48.0421
48.0013
47.9606
47.9201
47.8799
47.84
47.8003
47.7609
47.7218
47.683
47.6445
47.6063
47.5684
47.5309
47.4938
47.457
47.4206
47.3846
47.349
47.3139
47.2791
47.2448
47.2109
47.1774
47.1444
47.1119
47.0798
47.0483
47.0172
46.9866
46.9565
46.9269
46.8979
46.8694
46.8414
46.8139
46.787
46.7607
46.7348
46.7096
46.6849
46.6608
46.6372
46.6143
46.5919
46.5701
46.5489
46.5283
46.5082
46.4888
46.4699
46.4517
46.4341
46.417
46.4006
46.3847
46.3695
46.3549
46.3409
46.3274
46.3146
46.3024
46.2908
46.2798
46.2694
46.2596
46.2504
46.2418
46.2338
46.2263
46.2195
46.2132
46.2075
46.2024
46.1979
46.1939
46.1905
46.1877
46.1854
46.1837
46.1825
46.1819
46.1818
46.1822
46.1831
46.1846
46.1866
46.1891
46.1921
46.1956
46.1996
46.2041
46.209
46.2145
46.2203
46.2267
46.2335
46.2407
46.2484
46.2565
46.265
46.2739
46.2832
46.2929
46.303
46.3135
46.3243
46.3355
46.3471
46.359
46.3713
46.3838
46.3967
46.4099
46.4234
46.4372
46.4513
46.4656
46.4802
46.4951
46.5102
46.5256
46.5412
46.557
46.573
46.5892
46.6056
46.6222
46.639
46.656
46.673
46.6903
46.7077
46.7252
46.7428
46.7606
46.7784
46.7963
46.8144
46.8325
46.8506
46.8689
46.8871
46.9054
46.9238
46.9422
46.9605
46.9789
46.9973
47.0157
47.0341
47.0524
47.0707
47.0889
47.1071
47.1253
47.1434
47.1614
47.1793
47.1971
47.2148
47.2324
47.2499
47.2673
47.2846
47.3017
47.3187
47.3355
47.3522
47.3687
47.3851
47.4012
47.4172
47.433
47.4486
47.464
47.4792
47.4942
47.509
47.5235
47.5378
47.5519
47.5657
47.5793
47.5926
47.6057
47.6185
47.6311
47.6433
47.6553
47.667
47.6785
47.6896
47.7005
47.711
47.7213
47.7312
47.7408
47.7502
47.7592
47.7679
47.7762
47.7843
47.792
47.7994
47.8064
47.8131
47.8195
47.8255
47.8312
47.8366
47.8415
47.8462
47.8505
47.8544
47.858
47.8613
47.8641
47.8667
47.8688
47.8706
47.8721
47.8731
47.8739
47.8742
50.852
50.8508
50.8482
50.8446
50.8399
50.8343
50.8278
50.8206
50.8127
50.804
50.7945
50.7844
50.7734
50.7618
50.7493
50.7361
50.7222
50.7075
50.6921
50.6759
50.659
50.6413
50.6229
50.6038
50.5839
50.5634
50.5421
50.5202
50.4975
50.4742
50.4501
50.4255
50.4001
50.3741
50.3475
50.3202
50.2924
50.2639
50.2348
50.2051
50.1749
50.1441
50.1127
50.0808
50.0484
50.0155
49.982
49.9481
49.9137
49.8788
49.8434
49.8077
49.7714
49.7348
49.6978
49.6604
49.6226
49.5844
49.5459
49.5071
49.468
49.4285
49.3888
49.3488
49.3085
49.268
49.2272
49.1863
49.1451
49.1037
49.0622
49.0205
48.9787
48.9367
48.8947
48.8525
48.8102
48.7679
48.7255
48.6831
48.6407
48.5982
48.5558
48.5134
48.471
48.4286
48.3864
48.3442
48.3021
48.2601
48.2182
48.1764
48.1348
48.0934
48.0521
48.011
47.9701
47.9295
47.889
47.8488
47.8089
47.7692
47.7298
47.6907
47.6519
47.6134
47.5752
47.5373
47.4998
47.4627
47.4259
47.3896
47.3536
47.318
47.2828
47.248
47.2137
47.1798
47.1463
47.1134
47.0808
47.0488
47.0172
46.9861
46.9556
46.9255
46.8959
46.8669
46.8383
46.8104
46.7829
46.756
46.7296
46.7038
46.6786
46.6539
46.6298
46.6062
46.5833
46.5609
46.5391
46.5179
46.4973
46.4772
46.4578
46.439
46.4207
46.4031
46.386
46.3696
46.3538
46.3386
46.3239
46.3099
46.2965
46.2837
46.2715
46.2599
46.2489
46.2385
46.2287
46.2195
46.2109
46.2028
46.1954
46.1886
46.1823
46.1766
46.1715
46.167
46.163
46.1596
46.1568
46.1545
46.1528
46.1516
46.151
46.1509
46.1513
46.1523
46.1537
46.1557
46.1582
46.1612
46.1647
46.1687
46.1732
46.1782
46.1836
46.1895
46.1958
46.2026
46.2098
46.2175
46.2256
46.2341
46.243
46.2523
46.2621
46.2722
46.2826
46.2935
46.3047
46.3163
46.3282
46.3404
46.353
46.3659
46.3791
46.3926
46.4063
46.4204
46.4348
46.4494
46.4643
46.4794
46.4947
46.5103
46.5261
46.5421
46.5584
46.5748
46.5914
46.6081
46.6251
46.6422
46.6594
46.6768
46.6943
46.7119
46.7297
46.7475
46.7654
46.7835
46.8016
46.8197
46.838
46.8562
46.8745
46.8929
46.9112
46.9296
46.948
46.9664
46.9848
47.0031
47.0215
47.0398
47.058
47.0762
47.0943
47.1124
47.1304
47.1483
47.1661
47.1839
47.2015
47.219
47.2364
47.2536
47.2707
47.2877
47.3046
47.3212
47.3377
47.3541
47.3703
47.3862
47.402
47.4176
47.433
47.4482
47.4632
47.478
47.4925
47.5068
47.5209
47.5347
47.5483
47.5616
47.5747
47.5875
47.6
47.6123
47.6243
47.636
47.6474
47.6586
47.6694
47.68
47.6902
47.7002
47.7098
47.7191
47.7281
47.7368
47.7452
47.7532
47.7609
47.7683
47.7753
47.782
47.7884
47.7944
47.8001
47.8055
47.8105
47.8151
47.8194
47.8234
47.8269
47.8302
47.8331
47.8356
47.8377
47.8395
47.841
47.8421
47.8428
47.8431
50.78
50.7787
50.776
50.7721
50.7671
50.7612
50.7544
50.7469
50.7386
50.7296
50.7199
50.7095
50.6984
50.6865
50.674
50.6607
50.6467
50.6319
50.6164
50.6002
50.5832
50.5655
50.5471
50.528
50.5081
50.4876
50.4663
50.4443
50.4217
50.3983
50.3743
50.3496
50.3243
50.2983
50.2717
50.2445
50.2166
50.1881
50.1591
50.1294
50.0992
50.0684
50.0371
50.0052
49.9728
49.9399
49.9065
49.8725
49.8382
49.8033
49.768
49.7322
49.696
49.6594
49.6224
49.585
49.5473
49.5092
49.4707
49.4319
49.3928
49.3534
49.3137
49.2737
49.2334
49.193
49.1522
49.1113
49.0702
49.0288
48.9874
48.9457
48.9039
48.862
48.8199
48.7778
48.7356
48.6933
48.651
48.6086
48.5662
48.5238
48.4814
48.439
48.3966
48.3543
48.3121
48.2699
48.2278
48.1859
48.144
48.1023
48.0607
48.0193
47.9781
47.9371
47.8962
47.8556
47.8152
47.775
47.7351
47.6954
47.6561
47.617
47.5782
47.5397
47.5016
47.4638
47.4263
47.3892
47.3525
47.3161
47.2802
47.2446
47.2095
47.1747
47.1404
47.1066
47.0732
47.0402
47.0077
46.9757
46.9441
46.9131
46.8825
46.8525
46.823
46.7939
46.7654
46.7375
46.7101
46.6832
46.6568
46.6311
46.6058
46.5812
46.5571
46.5336
46.5106
46.4883
46.4665
46.4453
46.4247
46.4047
46.3853
46.3665
46.3483
46.3306
46.3136
46.2972
46.2814
46.2662
46.2516
46.2376
46.2242
46.2114
46.1992
46.1876
46.1766
46.1662
46.1564
46.1473
46.1387
46.1306
46.1232
46.1164
46.1101
46.1045
46.0994
46.0949
46.0909
46.0875
46.0847
46.0824
46.0807
46.0795
46.0789
46.0788
46.0793
46.0802
46.0817
46.0837
46.0862
46.0892
46.0927
46.0967
46.1012
46.1062
46.1116
46.1175
46.1238
46.1306
46.1378
46.1455
46.1536
46.1621
46.171
46.1803
46.19
46.2001
46.2106
46.2215
46.2327
46.2442
46.2561
46.2684
46.2809
46.2938
46.307
46.3205
46.3343
46.3483
46.3627
46.3773
46.3921
46.4073
46.4226
46.4382
46.454
46.47
46.4862
46.5026
46.5192
46.536
46.5529
46.57
46.5872
46.6046
46.6221
46.6397
46.6574
46.6752
46.6932
46.7112
46.7293
46.7474
46.7656
46.7839
46.8022
46.8205
46.8389
46.8572
46.8756
46.894
46.9123
46.9307
46.949
46.9673
46.9855
47.0037
47.0218
47.0399
47.0579
47.0758
47.0936
47.1113
47.1289
47.1464
47.1637
47.181
47.1981
47.2151
47.2319
47.2485
47.265
47.2814
47.2975
47.3135
47.3293
47.3449
47.3602
47.3754
47.3904
47.4051
47.4197
47.4339
47.448
47.4618
47.4754
47.4887
47.5018
47.5146
47.5271
47.5394
47.5513
47.563
47.5745
47.5856
47.5964
47.607
47.6172
47.6271
47.6368
47.6461
47.6551
47.6638
47.6721
47.6801
47.6878
47.6952
47.7023
47.709
47.7153
47.7214
47.727
47.7324
47.7374
47.742
47.7463
47.7502
47.7538
47.7571
47.7599
47.7624
47.7646
47.7664
47.7678
47.7689
47.7697
47.77
50.7409
50.7396
50.7369
50.7332
50.7282
50.7224
50.7157
50.7082
50.6999
50.691
50.6813
50.6709
50.6597
50.6478
50.6352
50.6219
50.6079
50.5931
50.5775
50.5613
50.5443
50.5265
50.5081
50.4889
50.469
50.4484
50.4271
50.4052
50.3825
50.3591
50.3351
50.3104
50.2851
50.2591
50.2324
50.2052
50.1773
50.1488
50.1198
50.0901
50.0599
50.0291
49.9977
49.9659
49.9334
49.9005
49.8671
49.8332
49.7988
49.7639
49.7286
49.6928
49.6566
49.62
49.583
49.5456
49.5078
49.4697
49.4313
49.3925
49.3533
49.3139
49.2742
49.2342
49.194
49.1535
49.1128
49.0718
49.0307
48.9894
48.9479
48.9062
48.8644
48.8225
48.7804
48.7383
48.6961
48.6538
48.6114
48.5691
48.5267
48.4842
48.4418
48.3994
48.3571
48.3148
48.2725
48.2304
48.1883
48.1463
48.1045
48.0628
48.0212
47.9798
47.9385
47.8975
47.8566
47.816
47.7756
47.7354
47.6955
47.6559
47.6165
47.5774
47.5386
47.5002
47.462
47.4242
47.3867
47.3496
47.3129
47.2766
47.2406
47.205
47.1699
47.1351
47.1008
47.067
47.0336
47.0006
46.9681
46.9361
46.9046
46.8735
46.843
46.8129
46.7834
46.7544
46.7259
46.6979
46.6705
46.6436
46.6173
46.5915
46.5663
46.5416
46.5175
46.494
46.4711
46.4487
46.4269
46.4058
46.3852
46.3652
46.3457
46.3269
46.3087
46.2911
46.2741
46.2577
46.2419
46.2267
46.2121
46.1981
46.1847
46.1719
46.1597
46.1481
46.1371
46.1267
46.117
46.1078
46.0992
46.0912
46.0837
46.0769
46.0707
46.065
46.0599
46.0554
46.0514
46.0481
46.0452
46.043
46.0413
46.0401
46.0395
46.0394
46.0398
46.0408
46.0423
46.0443
46.0468
46.0498
46.0533
46.0573
46.0618
46.0668
46.0722
46.0781
46.0844
46.0912
46.0985
46.1061
46.1142
46.1227
46.1316
46.141
46.1507
46.1608
46.1713
46.1821
46.1933
46.2049
46.2168
46.229
46.2416
46.2545
46.2677
46.2812
46.2949
46.309
46.3234
46.338
46.3528
46.3679
46.3833
46.3989
46.4147
46.4307
46.4469
46.4633
46.4799
46.4967
46.5136
46.5307
46.5479
46.5653
46.5828
46.6004
46.6181
46.6359
46.6539
46.6719
46.69
46.7081
46.7263
46.7446
46.7629
46.7812
46.7996
46.8179
46.8363
46.8547
46.873
46.8914
46.9097
46.928
46.9462
46.9644
46.9825
47.0006
47.0186
47.0365
47.0543
47.072
47.0896
47.1071
47.1244
47.1417
47.1588
47.1757
47.1926
47.2092
47.2257
47.242
47.2582
47.2742
47.2899
47.3055
47.3209
47.3361
47.3511
47.3658
47.3803
47.3946
47.4087
47.4225
47.4361
47.4494
47.4624
47.4752
47.4878
47.5
47.512
47.5237
47.5351
47.5462
47.5571
47.5676
47.5779
47.5878
47.5974
47.6067
47.6157
47.6244
47.6328
47.6408
47.6485
47.6559
47.6629
47.6696
47.676
47.682
47.6877
47.693
47.698
47.7026
47.7069
47.7109
47.7144
47.7177
47.7206
47.7231
47.7252
47.727
47.7285
47.7296
47.7303
47.7306
50.6739
50.6726
50.6699
50.666
50.661
50.655
50.6482
50.6405
50.6321
50.623
50.6131
50.6026
50.5913
50.5793
50.5666
50.5532
50.539
50.5242
50.5086
50.4923
50.4752
50.4574
50.439
50.4198
50.3998
50.3792
50.3579
50.3359
50.3132
50.2899
50.2658
50.2411
50.2158
50.1898
50.1631
50.1359
50.108
50.0795
50.0505
50.0208
49.9906
49.9598
49.9285
49.8966
49.8642
49.8313
49.7978
49.7639
49.7295
49.6947
49.6594
49.6236
49.5874
49.5508
49.5139
49.4765
49.4387
49.4006
49.3622
49.3234
49.2843
49.2449
49.2052
49.1652
49.125
49.0845
49.0438
49.0029
48.9617
48.9204
48.879
48.8373
48.7955
48.7536
48.7116
48.6695
48.6273
48.585
48.5427
48.5003
48.4579
48.4155
48.3732
48.3308
48.2884
48.2462
48.2039
48.1618
48.1197
48.0778
48.0359
47.9942
47.9527
47.9113
47.8701
47.829
47.7882
47.7476
47.7072
47.6671
47.6272
47.5875
47.5482
47.5091
47.4704
47.4319
47.3938
47.356
47.3186
47.2815
47.2448
47.2084
47.1725
47.1369
47.1018
47.0671
47.0328
46.999
46.9656
46.9326
46.9001
46.8681
46.8366
46.8056
46.7751
46.745
46.7155
46.6865
46.658
46.6301
46.6027
46.5758
46.5495
46.5238
46.4986
46.4739
46.4498
46.4263
46.4034
46.3811
46.3593
46.3382
46.3176
46.2976
46.2782
46.2594
46.2412
46.2236
46.2066
46.1902
46.1744
46.1592
46.1446
46.1306
46.1173
46.1045
46.0923
46.0807
46.0698
46.0594
46.0496
46.0404
46.0319
46.0239
46.0165
46.0096
46.0034
45.9977
45.9927
45.9882
45.9842
45.9809
45.978
45.9758
45.9741
45.9729
45.9723
45.9722
45.9727
45.9736
45.9751
45.9772
45.9797
45.9827
45.9862
45.9902
45.9947
45.9997
46.0051
46.011
46.0174
46.0242
46.0314
46.0391
46.0472
46.0557
46.0646
46.0739
46.0836
46.0937
46.1042
46.1151
46.1263
46.1378
46.1497
46.162
46.1746
46.1874
46.2006
46.2141
46.2279
46.242
46.2563
46.2709
46.2858
46.3009
46.3163
46.3318
46.3476
46.3636
46.3799
46.3963
46.4128
46.4296
46.4465
46.4636
46.4808
46.4982
46.5157
46.5333
46.551
46.5689
46.5868
46.6048
46.6229
46.641
46.6592
46.6775
46.6958
46.7141
46.7324
46.7508
46.7692
46.7875
46.8059
46.8242
46.8425
46.8608
46.879
46.8972
46.9153
46.9334
46.9513
46.9692
46.987
47.0047
47.0223
47.0398
47.0572
47.0744
47.0915
47.1085
47.1253
47.1419
47.1584
47.1747
47.1909
47.2069
47.2226
47.2382
47.2536
47.2688
47.2837
47.2985
47.313
47.3273
47.3413
47.3551
47.3687
47.382
47.395
47.4078
47.4203
47.4326
47.4446
47.4563
47.4677
47.4788
47.4896
47.5002
47.5104
47.5203
47.53
47.5393
47.5482
47.5569
47.5653
47.5733
47.581
47.5884
47.5954
47.6021
47.6085
47.6145
47.6202
47.6255
47.6305
47.6351
47.6394
47.6433
47.6469
47.6502
47.653
47.6555
47.6577
47.6595
47.6609
47.662
47.6627
47.6631
50.6292
50.628
50.6253
50.6215
50.6166
50.6107
50.6039
50.5964
50.588
50.5789
50.569
50.5585
50.5472
50.5352
50.5224
50.509
50.4948
50.4799
50.4642
50.4479
50.4308
50.413
50.3945
50.3752
50.3553
50.3347
50.3133
50.2913
50.2686
50.2452
50.2211
50.1964
50.171
50.145
50.1183
50.0911
50.0632
50.0347
50.0056
49.9759
49.9457
49.9149
49.8835
49.8517
49.8192
49.7863
49.7529
49.7189
49.6845
49.6497
49.6143
49.5786
49.5424
49.5058
49.4688
49.4314
49.3936
49.3555
49.317
49.2782
49.2391
49.1997
49.16
49.12
49.0798
49.0393
48.9986
48.9576
48.9165
48.8752
48.8337
48.792
48.7502
48.7083
48.6663
48.6242
48.582
48.5397
48.4973
48.455
48.4126
48.3702
48.3278
48.2854
48.243
48.2007
48.1585
48.1163
48.0743
48.0323
47.9905
47.9488
47.9072
47.8658
47.8246
47.7835
47.7427
47.7021
47.6617
47.6215
47.5816
47.542
47.5026
47.4636
47.4248
47.3863
47.3482
47.3104
47.273
47.2359
47.1992
47.1628
47.1269
47.0913
47.0562
47.0215
46.9872
46.9533
46.9199
46.887
46.8545
46.8225
46.791
46.7599
46.7294
46.6994
46.6698
46.6408
46.6124
46.5844
46.557
46.5302
46.5038
46.4781
46.4529
46.4282
46.4042
46.3807
46.3577
46.3354
46.3136
46.2925
46.2719
46.2519
46.2325
46.2137
46.1955
46.1779
46.1609
46.1445
46.1287
46.1135
46.099
46.085
46.0716
46.0588
46.0467
46.0351
46.0241
46.0138
46.004
45.9948
45.9862
45.9782
45.9708
45.964
45.9578
45.9522
45.9471
45.9426
45.9386
45.9353
45.9325
45.9302
45.9285
45.9274
45.9268
45.9267
45.9271
45.9281
45.9296
45.9316
45.9342
45.9372
45.9407
45.9447
45.9492
45.9542
45.9596
45.9655
45.9719
45.9787
45.986
45.9936
46.0017
46.0103
46.0192
46.0285
46.0382
46.0483
46.0588
46.0697
46.0809
46.0925
46.1044
46.1166
46.1292
46.1421
46.1553
46.1688
46.1826
46.1967
46.211
46.2256
46.2405
46.2556
46.271
46.2866
46.3024
46.3184
46.3346
46.351
46.3676
46.3843
46.4013
46.4184
46.4356
46.453
46.4705
46.4881
46.5058
46.5236
46.5416
46.5596
46.5777
46.5958
46.614
46.6323
46.6506
46.6689
46.6873
46.7056
46.724
46.7424
46.7607
46.7791
46.7974
46.8156
46.8339
46.8521
46.8702
46.8882
46.9062
46.9241
46.9419
46.9596
46.9772
46.9947
47.012
47.0293
47.0464
47.0633
47.0802
47.0968
47.1133
47.1296
47.1458
47.1617
47.1775
47.1931
47.2085
47.2236
47.2386
47.2533
47.2679
47.2821
47.2962
47.31
47.3236
47.3369
47.3499
47.3627
47.3752
47.3875
47.3995
47.4112
47.4226
47.4337
47.4445
47.4551
47.4653
47.4752
47.4848
47.4941
47.5031
47.5118
47.5202
47.5282
47.5359
47.5433
47.5503
47.557
47.5634
47.5694
47.575
47.5804
47.5854
47.59
47.5943
47.5982
47.6018
47.605
47.6079
47.6104
47.6126
47.6144
47.6158
47.6169
47.6176
47.618
50.5657
50.5644
50.5618
50.558
50.5531
50.5472
50.5403
50.5327
50.5243
50.5151
50.5051
50.4945
50.4831
50.471
50.4582
50.4447
50.4304
50.4154
50.3997
50.3833
50.3662
50.3483
50.3298
50.3105
50.2905
50.2699
50.2485
50.2264
50.2037
50.1803
50.1562
50.1315
50.1061
50.08
50.0534
50.0261
49.9982
49.9697
49.9406
49.9109
49.8807
49.8499
49.8185
49.7866
49.7542
49.7212
49.6878
49.6539
49.6195
49.5846
49.5493
49.5135
49.4773
49.4407
49.4037
49.3663
49.3285
49.2904
49.252
49.2132
49.174
49.1346
49.0949
49.0549
49.0147
48.9742
48.9335
48.8926
48.8514
48.8101
48.7686
48.727
48.6852
48.6433
48.6012
48.5591
48.5169
48.4746
48.4323
48.3899
48.3475
48.3051
48.2627
48.2204
48.178
48.1357
48.0935
48.0513
48.0093
47.9673
47.9255
47.8838
47.8422
47.8008
47.7596
47.7186
47.6777
47.6371
47.5967
47.5566
47.5167
47.477
47.4377
47.3986
47.3599
47.3214
47.2833
47.2455
47.208
47.171
47.1343
47.0979
47.062
47.0264
46.9913
46.9566
46.9223
46.8885
46.8551
46.8221
46.7897
46.7577
46.7262
46.6951
46.6646
46.6346
46.6051
46.5761
46.5476
46.5197
46.4923
46.4654
46.4391
46.4134
46.3882
46.3635
46.3395
46.316
46.2931
46.2707
46.249
46.2278
46.2073
46.1873
46.1679
46.1491
46.1309
46.1133
46.0963
46.08
46.0642
46.049
46.0344
46.0205
46.0071
45.9943
45.9822
45.9706
45.9597
45.9493
45.9395
45.9304
45.9218
45.9138
45.9064
45.8996
45.8934
45.8878
45.8827
45.8782
45.8743
45.871
45.8682
45.8659
45.8642
45.8631
45.8625
45.8624
45.8629
45.8639
45.8654
45.8674
45.87
45.873
45.8765
45.8805
45.8851
45.89
45.8955
45.9014
45.9078
45.9146
45.9218
45.9295
45.9376
45.9461
45.9551
45.9644
45.9742
45.9843
45.9948
46.0056
46.0169
46.0284
46.0403
46.0526
46.0652
46.0781
46.0913
46.1048
46.1186
46.1327
46.147
46.1616
46.1765
46.1916
46.207
46.2226
46.2384
46.2544
46.2706
46.287
46.3036
46.3204
46.3373
46.3544
46.3717
46.389
46.4065
46.4242
46.4419
46.4597
46.4776
46.4957
46.5137
46.5319
46.5501
46.5684
46.5867
46.605
46.6233
46.6417
46.6601
46.6784
46.6968
46.7151
46.7335
46.7517
46.77
46.7881
46.8063
46.8243
46.8423
46.8602
46.878
46.8957
46.9133
46.9308
46.9481
46.9654
46.9825
46.9994
47.0162
47.0329
47.0494
47.0657
47.0818
47.0978
47.1136
47.1292
47.1445
47.1597
47.1747
47.1894
47.2039
47.2182
47.2322
47.246
47.2596
47.2729
47.286
47.2987
47.3113
47.3235
47.3355
47.3472
47.3586
47.3697
47.3806
47.3911
47.4013
47.4112
47.4209
47.4302
47.4392
47.4478
47.4562
47.4642
47.4719
47.4793
47.4863
47.493
47.4994
47.5054
47.5111
47.5164
47.5214
47.526
47.5303
47.5342
47.5378
47.541
47.5439
47.5464
47.5486
47.5504
47.5518
47.5529
47.5536
47.554
50.5173
50.5161
50.5135
50.5098
50.5049
50.4991
50.4924
50.4848
50.4764
50.4672
50.4573
50.4467
50.4353
50.4232
50.4103
50.3968
50.3825
50.3675
50.3517
50.3353
50.3181
50.3002
50.2816
50.2623
50.2423
50.2216
50.2002
50.1781
50.1553
50.1319
50.1078
50.083
50.0576
50.0315
50.0048
49.9775
49.9496
49.9211
49.892
49.8623
49.832
49.8011
49.7698
49.7378
49.7054
49.6724
49.639
49.605
49.5706
49.5357
49.5004
49.4646
49.4284
49.3917
49.3547
49.3173
49.2795
49.2414
49.2029
49.1641
49.1249
49.0855
49.0458
49.0058
48.9655
48.925
48.8843
48.8433
48.8022
48.7608
48.7193
48.6777
48.6358
48.5939
48.5519
48.5097
48.4675
48.4252
48.3828
48.3405
48.298
48.2556
48.2132
48.1708
48.1284
48.0861
48.0439
48.0017
47.9596
47.9177
47.8758
47.8341
47.7925
47.7511
47.7099
47.6688
47.628
47.5873
47.5469
47.5068
47.4669
47.4272
47.3878
47.3488
47.31
47.2715
47.2334
47.1956
47.1581
47.121
47.0843
47.048
47.012
46.9765
46.9413
46.9066
46.8723
46.8384
46.805
46.7721
46.7396
46.7076
46.6761
46.6451
46.6145
46.5845
46.555
46.526
46.4975
46.4696
46.4422
46.4153
46.389
46.3632
46.338
46.3134
46.2893
46.2658
46.2429
46.2206
46.1988
46.1777
46.1571
46.1371
46.1177
46.099
46.0808
46.0632
46.0462
46.0298
46.014
45.9989
45.9843
45.9703
45.957
45.9442
45.932
45.9205
45.9095
45.8992
45.8894
45.8803
45.8717
45.8637
45.8563
45.8496
45.8433
45.8377
45.8326
45.8282
45.8242
45.8209
45.8181
45.8159
45.8142
45.8131
45.8125
45.8124
45.8129
45.8139
45.8154
45.8174
45.82
45.823
45.8266
45.8306
45.8351
45.8401
45.8456
45.8515
45.8579
45.8647
45.872
45.8797
45.8878
45.8963
45.9053
45.9146
45.9244
45.9345
45.945
45.9559
45.9671
45.9787
45.9906
46.0029
46.0155
46.0284
46.0416
46.0551
46.0689
46.083
46.0974
46.112
46.1269
46.142
46.1574
46.173
46.1888
46.2048
46.2211
46.2375
46.2541
46.2709
46.2878
46.3049
46.3221
46.3395
46.357
46.3747
46.3924
46.4102
46.4282
46.4462
46.4643
46.4825
46.5007
46.5189
46.5372
46.5556
46.5739
46.5923
46.6107
46.6291
46.6474
46.6658
46.6841
46.7024
46.7206
46.7388
46.7569
46.775
46.793
46.8109
46.8287
46.8464
46.864
46.8815
46.8988
46.9161
46.9332
46.9501
46.967
46.9836
47.0001
47.0164
47.0326
47.0486
47.0643
47.0799
47.0953
47.1105
47.1254
47.1402
47.1547
47.169
47.183
47.1968
47.2104
47.2237
47.2368
47.2495
47.2621
47.2743
47.2863
47.298
47.3094
47.3205
47.3314
47.3419
47.3521
47.3621
47.3717
47.381
47.39
47.3987
47.407
47.415
47.4227
47.4301
47.4371
47.4438
47.4502
47.4562
47.4619
47.4672
47.4722
47.4768
47.4811
47.4851
47.4887
47.4919
47.4948
47.4973
47.4994
47.5012
47.5027
47.5038
47.5045
47.5048
50.4561
50.4549
50.4524
50.4487
50.4439
50.4381
50.4313
50.4238
50.4153
50.4062
50.3962
50.3855
50.3741
50.3619
50.349
50.3354
50.321
50.306
50.2902
50.2737
50.2565
50.2385
50.2199
50.2005
50.1805
50.1597
50.1383
50.1162
50.0934
50.0699
50.0457
50.021
49.9955
49.9694
49.9427
49.9154
49.8874
49.8589
49.8298
49.8
49.7697
49.7389
49.7075
49.6756
49.6431
49.6101
49.5766
49.5427
49.5082
49.4733
49.438
49.4022
49.3659
49.3293
49.2923
49.2548
49.217
49.1789
49.1404
49.1015
49.0624
49.0229
48.9832
48.9432
48.9029
48.8624
48.8217
48.7807
48.7395
48.6982
48.6567
48.615
48.5732
48.5312
48.4892
48.447
48.4048
48.3624
48.3201
48.2777
48.2353
48.1928
48.1504
48.108
48.0656
48.0233
47.981
47.9389
47.8968
47.8548
47.8129
47.7712
47.7296
47.6882
47.647
47.6059
47.565
47.5244
47.484
47.4438
47.4039
47.3642
47.3249
47.2858
47.247
47.2085
47.1704
47.1326
47.0951
47.058
47.0213
46.9849
46.949
46.9134
46.8783
46.8435
46.8093
46.7754
46.742
46.709
46.6766
46.6446
46.613
46.582
46.5515
46.5214
46.4919
46.4629
46.4344
46.4065
46.3791
46.3522
46.3259
46.3002
46.275
46.2503
46.2263
46.2028
46.1799
46.1576
46.1358
46.1147
46.0941
46.0741
46.0547
46.0359
46.0178
46.0002
45.9832
45.9668
45.9511
45.9359
45.9213
45.9074
45.894
45.8813
45.8691
45.8576
45.8466
45.8363
45.8265
45.8174
45.8088
45.8009
45.7935
45.7867
45.7805
45.7749
45.7698
45.7654