/*--------------------------------*- C++ -*----------------------------------*\
| =========                 |                                                 |
| \\      /  F ield         | OpenFOAM: The Open Source CFD Toolbox           |
|  \\    /   O peration     | Version:  2212                                  |
|   \\  /    A nd           | Website:  www.openfoam.com                      |
|    \\/     M anipulation  |                                                 |
\*---------------------------------------------------------------------------*/
FoamFile
{
    version     2.0;
    format      ascii;
    arch        "LSB;label=32;scalar=64";
    class       volScalarField;
    location    "820";
    object      p_rgh_0;
}
// * * * * * * * * * * * * * * * * * * * * * * * * * * * * * * * * * * * * * //

dimensions      [1 -1 -2 0 0 0 0];

internalField   nonuniform List<scalar> 
204800
(
51.8675
51.8649
51.8608
51.8551
51.8471
51.837
51.8245
51.8097
51.7925
51.773
51.7512
51.7272
51.7011
51.6728
51.6426
51.6103
51.576
51.5398
51.5016
51.4615
51.4196
51.3757
51.3301
51.2826
51.2333
51.1822
51.1294
51.0749
51.0186
50.9607
50.9011
50.8399
50.7771
50.7127
50.6467
50.5792
50.5102
50.4397
50.3678
50.2944
50.2197
50.1436
50.0662
49.9874
49.9075
49.8262
49.7438
49.6602
49.5755
49.4897
49.4027
49.3148
49.2258
49.1359
49.045
48.9532
48.8605
48.767
48.6727
48.5776
48.4818
48.3853
48.2881
48.1902
48.0918
47.9928
47.8933
47.7932
47.6927
47.5918
47.4905
47.3888
47.2867
47.1844
47.0818
46.979
46.876
46.7729
46.6695
46.5661
46.4627
46.3592
46.2556
46.1521
46.0487
45.9454
45.8421
45.739
45.6361
45.5334
45.4309
45.3287
45.2268
45.1251
45.0238
44.9229
44.8224
44.7223
44.6226
44.5234
44.4247
44.3264
44.2288
44.1316
44.0351
43.9392
43.8438
43.7491
43.6551
43.5618
43.4691
43.3772
43.286
43.1955
43.1058
43.0169
42.9287
42.8414
42.7549
42.6693
42.5844
42.5005
42.4174
42.3352
42.2539
42.1736
42.0941
42.0155
41.9379
41.8612
41.7855
41.7107
41.6369
41.5641
41.4922
41.4214
41.3514
41.2825
41.2146
41.1477
41.0817
41.0168
40.9529
40.8899
40.828
40.767
40.7071
40.6482
40.5902
40.5333
40.4774
40.4224
40.3685
40.3156
40.2636
40.2126
40.1626
40.1136
40.0655
40.0185
39.9723
39.9272
39.883
39.8397
39.7974
39.756
39.7155
39.676
39.6373
39.5996
39.5628
39.5268
39.4917
39.4576
39.4242
39.3917
39.3601
39.3293
39.2993
39.2702
39.2419
39.2143
39.1876
39.1616
39.1364
39.1119
39.0883
39.0653
39.0431
39.0216
39.0008
38.9807
38.9613
38.9426
38.9245
38.9071
38.8903
38.8742
38.8587
38.8438
38.8294
38.8157
38.8026
38.79
38.778
38.7666
38.7556
38.7452
38.7353
38.7259
38.717
38.7086
38.7007
38.6932
38.6862
38.6796
38.6734
38.6676
38.6623
38.6574
38.6528
38.6486
38.6448
38.6414
38.6383
38.6355
38.6331
38.631
38.6292
38.6277
38.6265
38.6255
38.6249
38.6245
38.6243
38.6244
38.6248
38.6253
38.6261
38.6271
38.6283
38.6297
38.6313
38.6331
38.635
38.6371
38.6394
38.6418
38.6443
38.647
38.6497
38.6527
38.6557
38.6588
38.662
38.6653
38.6687
38.6722
38.6758
38.6794
38.683
38.6868
38.6905
38.6943
38.6982
38.7021
38.706
38.7099
38.7138
38.7178
38.7217
38.7256
38.7296
38.7335
38.7374
38.7413
38.7451
38.749
38.7528
38.7565
38.7603
38.7639
38.7676
38.7711
38.7746
38.7781
38.7815
38.7848
38.7881
38.7913
38.7944
38.7974
38.8004
38.8033
38.8061
38.8088
38.8114
38.8139
38.8163
38.8186
38.8209
38.823
38.825
38.827
38.8288
38.8305
38.8321
38.8336
38.835
38.8362
38.8374
38.8385
38.8394
38.8402
38.8409
38.8415
38.842
38.8423
38.8425
38.8427
51.7818
51.7788
51.7732
51.7653
51.755
51.7427
51.7282
51.7119
51.6934
51.6731
51.6507
51.6263
51.6
51.5716
51.5413
51.509
51.4747
51.4385
51.4003
51.3603
51.3184
51.2746
51.229
51.1816
51.1324
51.0814
51.0287
50.9742
50.9181
50.8602
50.8008
50.7397
50.677
50.6127
50.5468
50.4794
50.4106
50.3402
50.2684
50.1952
50.1206
50.0446
49.9673
49.8887
49.8089
49.7278
49.6455
49.5621
49.4775
49.3918
49.3051
49.2173
49.1285
49.0387
48.948
48.8563
48.7638
48.6705
48.5764
48.4814
48.3858
48.2894
48.1924
48.0948
47.9965
47.8977
47.7983
47.6985
47.5981
47.4974
47.3962
47.2947
47.1929
47.0908
46.9884
46.8858
46.7829
46.68
46.5768
46.4736
46.3703
46.267
46.1637
46.0604
45.9571
45.854
45.7509
45.648
45.5453
45.4428
45.3405
45.2384
45.1367
45.0353
44.9342
44.8334
44.7331
44.6331
44.5337
44.4346
44.3361
44.2381
44.1406
44.0436
43.9473
43.8515
43.7563
43.6618
43.568
43.4748
43.3823
43.2906
43.1995
43.1092
43.0197
42.9309
42.843
42.7558
42.6695
42.584
42.4993
42.4155
42.3326
42.2506
42.1694
42.0892
42.0099
41.9315
41.854
41.7775
41.7019
41.6273
41.5536
41.4809
41.4092
41.3385
41.2687
41.1999
41.1321
41.0653
40.9995
40.9347
40.8709
40.808
40.7462
40.6854
40.6256
40.5668
40.509
40.4521
40.3963
40.3415
40.2877
40.2348
40.183
40.1321
40.0822
40.0333
39.9853
39.9383
39.8923
39.8472
39.8031
39.7599
39.7177
39.6764
39.636
39.5965
39.558
39.5203
39.4835
39.4477
39.4127
39.3785
39.3453
39.3129
39.2813
39.2506
39.2207
39.1916
39.1633
39.1358
39.1091
39.0832
39.0581
39.0337
39.01
38.9871
38.965
38.9435
38.9228
38.9027
38.8833
38.8647
38.8466
38.8293
38.8125
38.7964
38.7809
38.7661
38.7518
38.7381
38.725
38.7125
38.7005
38.6891
38.6782
38.6678
38.6579
38.6486
38.6397
38.6313
38.6234
38.6159
38.6089
38.6023
38.5961
38.5904
38.5851
38.5802
38.5756
38.5715
38.5677
38.5642
38.5611
38.5584
38.556
38.5539
38.5521
38.5506
38.5494
38.5485
38.5478
38.5474
38.5473
38.5474
38.5477
38.5483
38.5491
38.5501
38.5513
38.5527
38.5543
38.5561
38.558
38.5601
38.5623
38.5647
38.5673
38.5699
38.5727
38.5756
38.5787
38.5818
38.585
38.5883
38.5917
38.5952
38.5987
38.6023
38.606
38.6097
38.6135
38.6173
38.6211
38.625
38.6289
38.6328
38.6367
38.6407
38.6446
38.6485
38.6525
38.6564
38.6603
38.6642
38.668
38.6718
38.6756
38.6794
38.6831
38.6868
38.6904
38.694
38.6975
38.7009
38.7043
38.7077
38.7109
38.7141
38.7172
38.7203
38.7232
38.7261
38.7289
38.7316
38.7342
38.7367
38.7391
38.7414
38.7437
38.7458
38.7478
38.7497
38.7515
38.7533
38.7549
38.7563
38.7577
38.759
38.7602
38.7612
38.7621
38.763
38.7637
38.7642
38.7647
38.7651
38.7653
38.7654
51.7629
51.7601
51.7546
51.7468
51.7366
51.7243
51.7099
51.6935
51.6751
51.6547
51.6323
51.6079
51.5815
51.5531
51.5228
51.4904
51.4561
51.4198
51.3817
51.3416
51.2997
51.2559
51.2103
51.1629
51.1136
51.0626
51.0099
50.9554
50.8993
50.8414
50.782
50.7208
50.6581
50.5938
50.528
50.4606
50.3917
50.3214
50.2496
50.1763
50.1017
50.0258
49.9485
49.8699
49.79
49.709
49.6267
49.5433
49.4587
49.373
49.2862
49.1984
49.1096
49.0199
48.9292
48.8375
48.745
48.6517
48.5576
48.4626
48.367
48.2706
48.1736
48.076
47.9777
47.8789
47.7796
47.6797
47.5794
47.4787
47.3775
47.276
47.1742
47.0721
46.9697
46.8671
46.7643
46.6613
46.5582
46.455
46.3517
46.2484
46.1451
46.0418
45.9385
45.8354
45.7324
45.6295
45.5268
45.4242
45.322
45.2199
45.1182
45.0168
44.9157
44.815
44.7146
44.6147
44.5152
44.4162
44.3177
44.2197
44.1222
44.0253
43.9289
43.8332
43.7381
43.6436
43.5497
43.4566
43.3641
43.2724
43.1813
43.0911
43.0015
42.9128
42.8249
42.7377
42.6514
42.5659
42.4813
42.3975
42.3146
42.2326
42.1515
42.0713
41.992
41.9136
41.8362
41.7597
41.6841
41.6095
41.5358
41.4632
41.3915
41.3207
41.251
41.1822
41.1145
41.0477
40.9819
40.9171
40.8533
40.7905
40.7287
40.6679
40.6081
40.5493
40.4915
40.4347
40.3789
40.3241
40.2703
40.2175
40.1657
40.1148
40.0649
40.016
39.9681
39.9211
39.8751
39.8301
39.786
39.7428
39.7006
39.6593
39.619
39.5795
39.541
39.5033
39.4666
39.4307
39.3958
39.3617
39.3284
39.296
39.2645
39.2338
39.2039
39.1748
39.1466
39.1191
39.0924
39.0665
39.0414
39.017
38.9934
38.9705
38.9484
38.927
38.9062
38.8862
38.8668
38.8482
38.8302
38.8128
38.7961
38.78
38.7646
38.7497
38.7355
38.7218
38.7087
38.6962
38.6842
38.6728
38.6619
38.6516
38.6417
38.6324
38.6235
38.6151
38.6072
38.5998
38.5928
38.5862
38.5801
38.5743
38.569
38.5641
38.5596
38.5554
38.5517
38.5482
38.5452
38.5424
38.54
38.5379
38.5361
38.5347
38.5335
38.5326
38.5319
38.5315
38.5314
38.5315
38.5319
38.5325
38.5333
38.5343
38.5355
38.5369
38.5385
38.5403
38.5422
38.5443
38.5466
38.549
38.5515
38.5542
38.557
38.5599
38.563
38.5661
38.5693
38.5726
38.5761
38.5795
38.5831
38.5867
38.5904
38.5941
38.5979
38.6017
38.6055
38.6094
38.6133
38.6172
38.6212
38.6251
38.629
38.633
38.6369
38.6408
38.6447
38.6486
38.6525
38.6563
38.6601
38.6639
38.6676
38.6713
38.6749
38.6785
38.682
38.6854
38.6888
38.6922
38.6954
38.6986
38.7017
38.7048
38.7077
38.7106
38.7134
38.7161
38.7187
38.7212
38.7236
38.726
38.7282
38.7303
38.7324
38.7343
38.7361
38.7378
38.7394
38.7409
38.7423
38.7436
38.7447
38.7458
38.7467
38.7475
38.7482
38.7488
38.7493
38.7496
38.7499
38.75
51.6863
51.6832
51.6771
51.6684
51.6572
51.6439
51.6285
51.6112
51.5921
51.5711
51.5483
51.5235
51.4968
51.4682
51.4377
51.4052
51.3708
51.3345
51.2963
51.2563
51.2143
51.1706
51.1249
51.0775
51.0283
50.9774
50.9247
50.8703
50.8141
50.7564
50.6969
50.6359
50.5732
50.509
50.4432
50.3759
50.3071
50.2368
50.1651
50.0919
50.0174
49.9415
49.8643
49.7858
49.7061
49.6251
49.5429
49.4596
49.3751
49.2895
49.2029
49.1152
49.0265
48.9368
48.8462
48.7547
48.6623
48.5691
48.475
48.3802
48.2847
48.1885
48.0916
47.994
47.8959
47.7972
47.698
47.5983
47.4981
47.3974
47.2964
47.1951
47.0934
46.9914
46.8891
46.7866
46.6839
46.5811
46.4781
46.375
46.2719
46.1687
46.0655
45.9624
45.8593
45.7563
45.6534
45.5506
45.448
45.3456
45.2435
45.1416
45.04
44.9387
44.8377
44.7372
44.637
44.5372
44.4378
44.339
44.2406
44.1427
44.0453
43.9485
43.8523
43.7567
43.6617
43.5673
43.4736
43.3806
43.2883
43.1966
43.1058
43.0156
42.9262
42.8376
42.7498
42.6628
42.5766
42.4912
42.4067
42.3231
42.2403
42.1584
42.0774
41.9973
41.9181
41.8399
41.7625
41.6861
41.6107
41.5362
41.4627
41.3901
41.3185
41.2479
41.1783
41.1096
41.0419
40.9753
40.9096
40.8449
40.7812
40.7185
40.6568
40.5961
40.5364
40.4777
40.42
40.3633
40.3076
40.2529
40.1992
40.1465
40.0947
40.0439
39.9942
39.9453
39.8975
39.8506
39.8047
39.7597
39.7157
39.6726
39.6305
39.5893
39.549
39.5096
39.4712
39.4336
39.3969
39.3611
39.3262
39.2922
39.259
39.2267
39.1952
39.1646
39.1348
39.1058
39.0776
39.0502
39.0235
38.9977
38.9726
38.9483
38.9247
38.9019
38.8798
38.8584
38.8378
38.8178
38.7985
38.7798
38.7619
38.7446
38.7279
38.7119
38.6964
38.6816
38.6674
38.6538
38.6408
38.6283
38.6163
38.605
38.5941
38.5838
38.574
38.5646
38.5558
38.5475
38.5396
38.5322
38.5252
38.5187
38.5125
38.5069
38.5016
38.4967
38.4922
38.4881
38.4843
38.4809
38.4778
38.4751
38.4727
38.4707
38.4689
38.4674
38.4663
38.4654
38.4647
38.4644
38.4643
38.4644
38.4648
38.4654
38.4662
38.4672
38.4684
38.4699
38.4715
38.4733
38.4752
38.4773
38.4796
38.482
38.4846
38.4873
38.4901
38.493
38.496
38.4992
38.5024
38.5057
38.5091
38.5126
38.5162
38.5198
38.5235
38.5272
38.531
38.5348
38.5386
38.5425
38.5464
38.5504
38.5543
38.5582
38.5622
38.5661
38.5701
38.574
38.5779
38.5818
38.5856
38.5895
38.5933
38.597
38.6008
38.6044
38.6081
38.6116
38.6152
38.6186
38.622
38.6253
38.6286
38.6318
38.6349
38.638
38.6409
38.6438
38.6466
38.6493
38.6519
38.6544
38.6568
38.6591
38.6614
38.6635
38.6655
38.6675
38.6693
38.671
38.6726
38.6741
38.6755
38.6767
38.6779
38.6789
38.6799
38.6807
38.6814
38.682
38.6824
38.6828
38.683
38.6832
51.6556
51.6527
51.6467
51.6382
51.6272
51.614
51.5988
51.5816
51.5625
51.5415
51.5186
51.4938
51.4671
51.4384
51.4078
51.3753
51.3408
51.3045
51.2662
51.2261
51.1841
51.1403
51.0947
51.0472
50.998
50.947
50.8943
50.8398
50.7837
50.7259
50.6665
50.6054
50.5427
50.4785
50.4127
50.3453
50.2765
50.2062
50.1345
50.0613
49.9868
49.9109
49.8337
49.7552
49.6754
49.5944
49.5122
49.4289
49.3444
49.2588
49.1721
49.0844
48.9957
48.9061
48.8154
48.7239
48.6315
48.5383
48.4443
48.3495
48.2539
48.1577
48.0608
47.9632
47.8651
47.7664
47.6672
47.5675
47.4673
47.3667
47.2656
47.1643
47.0626
46.9606
46.8583
46.7558
46.6532
46.5503
46.4473
46.3443
46.2411
46.138
46.0348
45.9316
45.8285
45.7255
45.6226
45.5199
45.4173
45.315
45.2128
45.1109
45.0094
44.9081
44.8071
44.7066
44.6064
44.5066
44.4073
44.3084
44.21
44.1122
44.0149
43.9181
43.8219
43.7263
43.6313
43.537
43.4433
43.3503
43.258
43.1664
43.0755
42.9854
42.896
42.8074
42.7196
42.6326
42.5465
42.4611
42.3767
42.293
42.2103
42.1284
42.0475
41.9674
41.8882
41.81
41.7327
41.6563
41.5809
41.5065
41.433
41.3604
41.2889
41.2183
41.1487
41.0801
41.0124
40.9458
40.8802
40.8155
40.7518
40.6892
40.6275
40.5669
40.5072
40.4486
40.3909
40.3342
40.2786
40.2239
40.1702
40.1175
40.0658
40.0151
39.9653
39.9165
39.8687
39.8219
39.776
39.7311
39.6871
39.6441
39.602
39.5608
39.5205
39.4812
39.4428
39.4053
39.3686
39.3329
39.298
39.264
39.2309
39.1986
39.1671
39.1365
39.1067
39.0778
39.0496
39.0223
38.9957
38.9699
38.9448
38.9206
38.897
38.8742
38.8522
38.8308
38.8102
38.7902
38.771
38.7524
38.7344
38.7172
38.7005
38.6845
38.6691
38.6544
38.6402
38.6266
38.6136
38.6011
38.5892
38.5779
38.5671
38.5568
38.547
38.5377
38.5289
38.5206
38.5127
38.5053
38.4984
38.4919
38.4858
38.4801
38.4749
38.47
38.4655
38.4615
38.4577
38.4543
38.4513
38.4486
38.4463
38.4442
38.4425
38.441
38.4399
38.439
38.4384
38.4381
38.438
38.4381
38.4385
38.4392
38.44
38.441
38.4423
38.4437
38.4454
38.4472
38.4491
38.4513
38.4536
38.456
38.4586
38.4613
38.4641
38.467
38.4701
38.4732
38.4765
38.4798
38.4833
38.4868
38.4903
38.494
38.4977
38.5014
38.5052
38.509
38.5129
38.5168
38.5207
38.5246
38.5286
38.5325
38.5365
38.5405
38.5444
38.5483
38.5523
38.5562
38.56
38.5639
38.5677
38.5715
38.5752
38.5789
38.5825
38.5861
38.5896
38.5931
38.5965
38.5998
38.6031
38.6063
38.6094
38.6125
38.6154
38.6183
38.6211
38.6238
38.6264
38.6289
38.6314
38.6337
38.6359
38.6381
38.6401
38.642
38.6438
38.6456
38.6472
38.6487
38.65
38.6513
38.6525
38.6535
38.6545
38.6553
38.656
38.6566
38.657
38.6574
38.6576
38.6578
51.5858
51.5828
51.5766
51.5678
51.5564
51.5428
51.5271
51.5095
51.49
51.4687
51.4455
51.4204
51.3934
51.3645
51.3337
51.301
51.2665
51.23
51.1917
51.1515
51.1095
51.0657
51.02
50.9725
50.9233
50.8723
50.8196
50.7651
50.709
50.6512
50.5918
50.5307
50.4681
50.4039
50.3381
50.2708
50.202
50.1317
50.06
49.9869
49.9124
49.8366
49.7594
49.6809
49.6012
49.5203
49.4381
49.3548
49.2704
49.1849
49.0983
49.0106
48.922
48.8323
48.7418
48.6503
48.558
48.4648
48.3709
48.2761
48.1807
48.0845
47.9877
47.8902
47.7921
47.6935
47.5943
47.4947
47.3946
47.294
47.1931
47.0918
46.9902
46.8882
46.7861
46.6837
46.5811
46.4783
46.3754
46.2724
46.1694
46.0663
45.9632
45.8601
45.7571
45.6542
45.5514
45.4487
45.3462
45.244
45.1419
45.0401
44.9386
44.8374
44.7366
44.6361
44.536
44.4363
44.3371
44.2383
44.14
44.0423
43.945
43.8483
43.7522
43.6567
43.5618
43.4676
43.374
43.2811
43.1889
43.0974
43.0066
42.9165
42.8273
42.7388
42.6511
42.5642
42.4781
42.3929
42.3085
42.225
42.1423
42.0605
41.9797
41.8997
41.8206
41.7425
41.6653
41.589
41.5137
41.4393
41.3659
41.2935
41.222
41.1515
41.082
41.0135
40.9459
40.8794
40.8138
40.7493
40.6857
40.6231
40.5615
40.501
40.4414
40.3828
40.3252
40.2687
40.2131
40.1585
40.1049
40.0523
40.0006
39.95
39.9003
39.8516
39.8039
39.7571
39.7113
39.6665
39.6226
39.5796
39.5376
39.4965
39.4563
39.417
39.3787
39.3412
39.3047
39.269
39.2342
39.2003
39.1672
39.135
39.1036
39.0731
39.0434
39.0144
38.9864
38.959
38.9325
38.9068
38.8818
38.8576
38.8341
38.8114
38.7894
38.7681
38.7475
38.7276
38.7084
38.6899
38.672
38.6548
38.6382
38.6222
38.6069
38.5922
38.578
38.5645
38.5515
38.5391
38.5273
38.516
38.5052
38.4949
38.4852
38.4759
38.4672
38.4589
38.4511
38.4437
38.4368
38.4304
38.4243
38.4187
38.4135
38.4086
38.4042
38.4001
38.3964
38.3931
38.3901
38.3874
38.3851
38.3831
38.3814
38.38
38.3788
38.378
38.3774
38.3771
38.377
38.3772
38.3776
38.3783
38.3792
38.3802
38.3815
38.383
38.3846
38.3864
38.3884
38.3906
38.3929
38.3953
38.3979
38.4006
38.4035
38.4065
38.4095
38.4127
38.416
38.4193
38.4228
38.4263
38.4299
38.4335
38.4372
38.441
38.4448
38.4486
38.4525
38.4564
38.4603
38.4643
38.4682
38.4722
38.4762
38.4801
38.4841
38.488
38.492
38.4959
38.4998
38.5036
38.5074
38.5112
38.5149
38.5186
38.5223
38.5259
38.5294
38.5329
38.5363
38.5396
38.5429
38.5461
38.5492
38.5523
38.5553
38.5581
38.5609
38.5636
38.5663
38.5688
38.5712
38.5736
38.5758
38.5779
38.58
38.5819
38.5837
38.5854
38.587
38.5885
38.5899
38.5912
38.5924
38.5934
38.5943
38.5952
38.5959
38.5965
38.5969
38.5973
38.5975
38.5976
51.5476
51.5447
51.5387
51.5301
51.5189
51.5055
51.4899
51.4725
51.453
51.4317
51.4084
51.3833
51.3562
51.3273
51.2964
51.2637
51.229
51.1925
51.1541
51.1139
51.0718
51.0279
50.9822
50.9347
50.8854
50.8343
50.7816
50.7271
50.6709
50.6131
50.5536
50.4925
50.4298
50.3656
50.2998
50.2324
50.1636
50.0933
50.0216
49.9484
49.8739
49.798
49.7208
49.6423
49.5626
49.4816
49.3995
49.3161
49.2317
49.1461
49.0595
48.9718
48.8832
48.7935
48.7029
48.6115
48.5191
48.4259
48.3319
48.2372
48.1417
48.0455
47.9487
47.8512
47.7531
47.6544
47.5553
47.4556
47.3555
47.2549
47.154
47.0527
46.951
46.8491
46.7469
46.6445
46.5419
46.4391
46.3362
46.2332
46.1302
46.0271
45.924
45.8209
45.7179
45.615
45.5122
45.4095
45.307
45.2047
45.1027
45.0009
44.8994
44.7982
44.6974
44.5969
44.4968
44.3971
44.2979
44.1991
44.1009
44.0031
43.9059
43.8092
43.7131
43.6176
43.5228
43.4285
43.335
43.2421
43.1499
43.0584
42.9676
42.8776
42.7884
42.6999
42.6122
42.5254
42.4393
42.3541
42.2698
42.1863
42.1036
42.0219
41.941
41.8611
41.7821
41.704
41.6268
41.5506
41.4753
41.401
41.3276
41.2552
41.1837
41.1133
41.0438
40.9753
40.9078
40.8413
40.7758
40.7113
40.6477
40.5852
40.5237
40.4632
40.4036
40.3451
40.2876
40.231
40.1755
40.121
40.0674
40.0148
39.9633
39.9127
39.863
39.8144
39.7667
39.72
39.6742
39.6294
39.5856
39.5427
39.5007
39.4596
39.4195
39.3803
39.342
39.3046
39.2681
39.2325
39.1977
39.1639
39.1308
39.0987
39.0673
39.0369
39.0072
38.9783
38.9503
38.923
38.8966
38.8709
38.8459
38.8218
38.7984
38.7757
38.7537
38.7325
38.7119
38.6921
38.6729
38.6544
38.6366
38.6194
38.6029
38.587
38.5717
38.557
38.5429
38.5295
38.5165
38.5042
38.4924
38.4811
38.4704
38.4602
38.4505
38.4413
38.4325
38.4243
38.4165
38.4092
38.4024
38.3959
38.3899
38.3843
38.3792
38.3744
38.37
38.366
38.3623
38.359
38.356
38.3534
38.3511
38.3491
38.3475
38.3461
38.345
38.3442
38.3436
38.3434
38.3433
38.3436
38.344
38.3447
38.3456
38.3467
38.348
38.3495
38.3511
38.353
38.355
38.3572
38.3595
38.362
38.3646
38.3674
38.3703
38.3732
38.3763
38.3795
38.3828
38.3862
38.3897
38.3932
38.3968
38.4005
38.4042
38.408
38.4118
38.4157
38.4196
38.4235
38.4275
38.4314
38.4354
38.4394
38.4434
38.4474
38.4513
38.4553
38.4592
38.4632
38.4671
38.4709
38.4748
38.4786
38.4823
38.486
38.4897
38.4933
38.4968
38.5003
38.5037
38.5071
38.5104
38.5136
38.5167
38.5198
38.5228
38.5257
38.5285
38.5312
38.5338
38.5363
38.5388
38.5411
38.5434
38.5455
38.5475
38.5495
38.5513
38.553
38.5546
38.5561
38.5575
38.5588
38.56
38.561
38.562
38.5628
38.5635
38.5641
38.5646
38.5649
38.5652
38.5653
51.4831
51.4801
51.4741
51.4654
51.4541
51.4406
51.4249
51.4073
51.3876
51.366
51.3426
51.3172
51.29
51.2608
51.2298
51.1969
51.1622
51.1255
51.0871
51.0467
51.0046
50.9606
50.9148
50.8673
50.8179
50.7669
50.714
50.6595
50.6034
50.5455
50.486
50.4249
50.3622
50.298
50.2321
50.1648
50.096
50.0257
49.9539
49.8808
49.8063
49.7304
49.6532
49.5747
49.495
49.414
49.3319
49.2485
49.1641
49.0785
48.9919
48.9043
48.8156
48.726
48.6354
48.544
48.4516
48.3585
48.2645
48.1698
48.0743
47.9781
47.8813
47.7839
47.6858
47.5872
47.488
47.3884
47.2883
47.1878
47.0869
46.9856
46.884
46.7821
46.6799
46.5776
46.475
46.3723
46.2694
46.1664
46.0634
45.9604
45.8573
45.7543
45.6513
45.5484
45.4457
45.3431
45.2406
45.1384
45.0364
44.9346
44.8332
44.7321
44.6313
44.5308
44.4308
44.3312
44.232
44.1333
44.0351
43.9374
43.8402
43.7436
43.6476
43.5522
43.4574
43.3632
43.2697
43.1768
43.0847
42.9933
42.9026
42.8127
42.7235
42.6351
42.5475
42.4607
42.3747
42.2896
42.2053
42.1218
42.0393
41.9576
41.8768
41.797
41.718
41.64
41.5629
41.4867
41.4115
41.3373
41.264
41.1916
41.1203
41.0499
40.9805
40.9121
40.8447
40.7782
40.7128
40.6483
40.5849
40.5224
40.461
40.4005
40.3411
40.2826
40.2252
40.1687
40.1133
40.0588
40.0053
39.9528
39.9013
39.8508
39.8013
39.7527
39.7051
39.6584
39.6128
39.568
39.5243
39.4814
39.4395
39.3985
39.3585
39.3194
39.2811
39.2438
39.2074
39.1718
39.1371
39.1033
39.0704
39.0383
39.007
38.9766
38.947
38.9182
38.8903
38.8631
38.8367
38.811
38.7862
38.7621
38.7387
38.7161
38.6942
38.673
38.6526
38.6328
38.6137
38.5953
38.5775
38.5604
38.5439
38.5281
38.5128
38.4982
38.4842
38.4707
38.4579
38.4456
38.4338
38.4226
38.4119
38.4018
38.3921
38.383
38.3743
38.3661
38.3584
38.3512
38.3443
38.338
38.332
38.3265
38.3213
38.3166
38.3122
38.3083
38.3046
38.3014
38.2985
38.2959
38.2936
38.2917
38.29
38.2887
38.2877
38.2869
38.2864
38.2861
38.2862
38.2864
38.2869
38.2876
38.2885
38.2897
38.291
38.2925
38.2942
38.2961
38.2982
38.3004
38.3027
38.3052
38.3079
38.3107
38.3136
38.3166
38.3197
38.3229
38.3262
38.3297
38.3331
38.3367
38.3403
38.344
38.3478
38.3516
38.3554
38.3593
38.3632
38.3672
38.3711
38.3751
38.3791
38.3831
38.3871
38.3911
38.3951
38.3991
38.403
38.407
38.4109
38.4148
38.4186
38.4224
38.4262
38.4299
38.4336
38.4372
38.4408
38.4443
38.4477
38.4511
38.4544
38.4576
38.4607
38.4638
38.4668
38.4697
38.4725
38.4752
38.4779
38.4804
38.4828
38.4852
38.4874
38.4896
38.4916
38.4936
38.4954
38.4971
38.4988
38.5003
38.5017
38.5029
38.5041
38.5052
38.5061
38.5069
38.5076
38.5082
38.5087
38.5091
38.5093
38.5094
51.4402
51.4373
51.4314
51.4229
51.4118
51.3985
51.3829
51.3653
51.3457
51.3242
51.3007
51.2753
51.248
51.2188
51.1877
51.1547
51.1199
51.0832
51.0446
51.0042
50.962
50.918
50.8721
50.8245
50.7751
50.7239
50.6711
50.6165
50.5603
50.5024
50.4428
50.3817
50.3189
50.2546
50.1887
50.1213
50.0524
49.9821
49.9103
49.8371
49.7625
49.6866
49.6094
49.5308
49.4511
49.3701
49.2879
49.2045
49.12
49.0344
48.9478
48.8601
48.7714
48.6817
48.5911
48.4996
48.4072
48.314
48.22
48.1252
48.0297
47.9335
47.8367
47.7392
47.6411
47.5424
47.4432
47.3436
47.2434
47.1429
47.0419
46.9406
46.839
46.737
46.6349
46.5325
46.4299
46.3271
46.2242
46.1212
46.0182
45.9151
45.812
45.709
45.606
45.5031
45.4003
45.2977
45.1953
45.093
44.991
44.8893
44.7878
44.6866
44.5858
44.4854
44.3854
44.2858
44.1866
44.0879
43.9897
43.892
43.7948
43.6982
43.6022
43.5067
43.4119
43.3178
43.2243
43.1315
43.0393
42.9479
42.8572
42.7673
42.6782
42.5898
42.5022
42.4154
42.3295
42.2443
42.1601
42.0767
41.9942
41.9125
41.8318
41.7519
41.673
41.595
41.5179
41.4418
41.3666
41.2924
41.2192
41.1469
41.0756
41.0052
40.9359
40.8675
40.8001
40.7337
40.6683
40.6039
40.5405
40.4781
40.4167
40.3563
40.2969
40.2385
40.1811
40.1247
40.0693
40.0149
39.9615
39.909
39.8576
39.8071
39.7576
39.7091
39.6616
39.615
39.5694
39.5247
39.481
39.4382
39.3964
39.3555
39.3155
39.2764
39.2382
39.201
39.1646
39.1291
39.0945
39.0608
39.0279
38.9958
38.9646
38.9343
38.9047
38.876
38.8481
38.821
38.7947
38.7691
38.7443
38.7203
38.697
38.6744
38.6526
38.6315
38.6111
38.5913
38.5723
38.5539
38.5362
38.5192
38.5028
38.487
38.4718
38.4572
38.4433
38.4299
38.4171
38.4048
38.3932
38.382
38.3714
38.3613
38.3517
38.3426
38.334
38.3259
38.3182
38.311
38.3042
38.2979
38.292
38.2865
38.2814
38.2768
38.2725
38.2685
38.265
38.2617
38.2589
38.2563
38.2541
38.2522
38.2507
38.2494
38.2484
38.2476
38.2472
38.247
38.247
38.2473
38.2479
38.2486
38.2496
38.2508
38.2521
38.2537
38.2554
38.2574
38.2595
38.2617
38.2641
38.2667
38.2693
38.2722
38.2751
38.2781
38.2813
38.2845
38.2879
38.2913
38.2949
38.2985
38.3021
38.3058
38.3096
38.3135
38.3173
38.3212
38.3252
38.3292
38.3331
38.3372
38.3412
38.3452
38.3492
38.3533
38.3573
38.3613
38.3653
38.3692
38.3731
38.377
38.3809
38.3847
38.3885
38.3923
38.396
38.3996
38.4032
38.4067
38.4101
38.4135
38.4168
38.4201
38.4232
38.4263
38.4293
38.4322
38.435
38.4378
38.4404
38.443
38.4454
38.4478
38.4501
38.4522
38.4543
38.4562
38.4581
38.4598
38.4614
38.4629
38.4643
38.4656
38.4668
38.4678
38.4688
38.4696
38.4703
38.4709
38.4714
38.4718
38.472
38.4721
51.3796
51.3768
51.3709
51.3625
51.3514
51.338
51.3224
51.3048
51.285
51.2634
51.2397
51.2142
51.1867
51.1574
51.1262
51.0931
51.0581
51.0213
50.9827
50.9422
50.8998
50.8557
50.8098
50.7621
50.7126
50.6614
50.6085
50.5539
50.4976
50.4397
50.3801
50.3189
50.2561
50.1917
50.1258
50.0584
49.9894
49.9191
49.8472
49.774
49.6994
49.6234
49.5462
49.4676
49.3878
49.3068
49.2245
49.1412
49.0566
48.971
48.8843
48.7966
48.7079
48.6182
48.5276
48.4361
48.3437
48.2505
48.1564
48.0616
47.9661
47.8699
47.773
47.6755
47.5774
47.4787
47.3795
47.2799
47.1797
47.0791
46.9782
46.8769
46.7752
46.6733
46.5711
46.4687
46.3661
46.2634
46.1605
46.0575
45.9545
45.8514
45.7483
45.6453
45.5423
45.4394
45.3366
45.234
45.1316
45.0293
44.9273
44.8256
44.7242
44.623
44.5223
44.4218
44.3218
44.2222
44.1231
44.0244
43.9262
43.8285
43.7314
43.6348
43.5388
43.4434
43.3487
43.2545
43.1611
43.0683
42.9762
42.8848
42.7942
42.7043
42.6152
42.5269
42.4393
42.3526
42.2667
42.1816
42.0974
42.0141
41.9316
41.85
41.7693
41.6895
41.6107
41.5327
41.4557
41.3796
41.3045
41.2304
41.1572
41.085
41.0137
40.9434
40.8741
40.8058
40.7385
40.6722
40.6069
40.5425
40.4792
40.4169
40.3555
40.2952
40.2359
40.1775
40.1202
40.0639
40.0085
39.9542
39.9009
39.8485
39.7971
39.7467
39.6973
39.6489
39.6014
39.5549
39.5094
39.4648
39.4211
39.3784
39.3367
39.2958
39.2559
39.2169
39.1788
39.1416
39.1054
39.0699
39.0354
39.0017
38.9689
38.937
38.9059
38.8756
38.8461
38.8175
38.7896
38.7626
38.7363
38.7108
38.6861
38.6622
38.6389
38.6165
38.5947
38.5737
38.5533
38.5337
38.5147
38.4964
38.4788
38.4618
38.4454
38.4297
38.4146
38.4001
38.3862
38.3729
38.3602
38.348
38.3364
38.3253
38.3147
38.3047
38.2952
38.2861
38.2776
38.2695
38.2619
38.2548
38.2481
38.2418
38.236
38.2305
38.2255
38.2209
38.2166
38.2128
38.2093
38.2061
38.2033
38.2008
38.1987
38.1968
38.1953
38.194
38.1931
38.1924
38.192
38.1918
38.1919
38.1923
38.1929
38.1937
38.1947
38.1959
38.1973
38.1989
38.2007
38.2027
38.2048
38.2071
38.2095
38.2121
38.2148
38.2177
38.2207
38.2237
38.2269
38.2302
38.2336
38.2371
38.2406
38.2443
38.248
38.2517
38.2555
38.2594
38.2633
38.2672
38.2712
38.2752
38.2792
38.2833
38.2873
38.2913
38.2954
38.2994
38.3035
38.3075
38.3115
38.3155
38.3194
38.3234
38.3273
38.3311
38.3349
38.3387
38.3424
38.346
38.3496
38.3531
38.3566
38.36
38.3633
38.3666
38.3698
38.3729
38.3759
38.3788
38.3816
38.3844
38.387
38.3896
38.3921
38.3944
38.3967
38.3989
38.4009
38.4029
38.4047
38.4065
38.4081
38.4096
38.411
38.4123
38.4135
38.4146
38.4155
38.4164
38.4171
38.4177
38.4181
38.4185
38.4187
38.4189
51.3338
51.331
51.3253
51.317
51.306
51.2928
51.2773
51.2597
51.24
51.2184
51.1947
51.1692
51.1417
51.1123
51.081
51.0478
51.0128
50.9759
50.9371
50.8966
50.8542
50.81
50.7639
50.7162
50.6666
50.6153
50.5623
50.5077
50.4513
50.3933
50.3336
50.2723
50.2095
50.145
50.079
50.0115
49.9425
49.8721
49.8002
49.7269
49.6522
49.5762
49.4988
49.4202
49.3403
49.2592
49.1769
49.0935
49.0089
48.9232
48.8365
48.7487
48.6599
48.5702
48.4795
48.3879
48.2954
48.2021
48.108
48.0132
47.9176
47.8213
47.7244
47.6268
47.5286
47.4299
47.3307
47.2309
47.1307
47.0301
46.9291
46.8277
46.726
46.6241
46.5218
46.4194
46.3167
46.2139
46.111
46.008
45.9049
45.8018
45.6986
45.5956
45.4925
45.3896
45.2868
45.1842
45.0817
44.9794
44.8774
44.7756
44.6742
44.573
44.4722
44.3718
44.2717
44.1721
44.0729
43.9742
43.876
43.7784
43.6812
43.5846
43.4886
43.3932
43.2984
43.2043
43.1109
43.0181
42.926
42.8346
42.744
42.6541
42.565
42.4767
42.3891
42.3024
42.2165
42.1315
42.0473
41.964
41.8815
41.8
41.7193
41.6395
41.5607
41.4828
41.4058
41.3298
41.2547
41.1806
41.1074
41.0352
40.964
40.8938
40.8245
40.7563
40.689
40.6227
40.5574
40.4931
40.4299
40.3676
40.3063
40.246
40.1868
40.1285
40.0712
40.0149
39.9597
39.9054
39.8521
39.7998
39.7485
39.6982
39.6488
39.6004
39.553
39.5066
39.4611
39.4166
39.373
39.3304
39.2887
39.2479
39.2081
39.1691
39.1311
39.094
39.0578
39.0225
38.988
38.9544
38.9217
38.8898
38.8587
38.8285
38.7991
38.7706
38.7428
38.7158
38.6896
38.6642
38.6396
38.6157
38.5926
38.5702
38.5485
38.5275
38.5072
38.4877
38.4688
38.4505
38.433
38.4161
38.3998
38.3842
38.3691
38.3547
38.3409
38.3277
38.315
38.3029
38.2913
38.2803
38.2698
38.2599
38.2504
38.2414
38.233
38.225
38.2174
38.2103
38.2037
38.1975
38.1917
38.1864
38.1814
38.1768
38.1727
38.1688
38.1654
38.1623
38.1595
38.1571
38.155
38.1532
38.1518
38.1506
38.1497
38.1491
38.1487
38.1486
38.1488
38.1492
38.1498
38.1507
38.1517
38.153
38.1545
38.1561
38.158
38.16
38.1622
38.1645
38.167
38.1696
38.1724
38.1753
38.1783
38.1814
38.1846
38.188
38.1914
38.1949
38.1985
38.2022
38.2059
38.2097
38.2135
38.2174
38.2214
38.2254
38.2294
38.2334
38.2375
38.2415
38.2456
38.2497
38.2538
38.2578
38.2619
38.266
38.27
38.274
38.278
38.2819
38.2858
38.2897
38.2935
38.2973
38.3011
38.3047
38.3083
38.3119
38.3154
38.3188
38.3221
38.3254
38.3286
38.3317
38.3347
38.3377
38.3405
38.3433
38.346
38.3486
38.351
38.3534
38.3557
38.3579
38.3599
38.3619
38.3638
38.3655
38.3672
38.3687
38.3701
38.3714
38.3726
38.3737
38.3746
38.3754
38.3762
38.3768
38.3772
38.3776
38.3778
38.378
51.2763
51.2735
51.2678
51.2595
51.2487
51.2354
51.2199
51.2023
51.1826
51.1609
51.1371
51.1115
51.0839
51.0544
51.023
50.9897
50.9546
50.9176
50.8787
50.838
50.7955
50.7512
50.7051
50.6573
50.6076
50.5563
50.5032
50.4485
50.392
50.3339
50.2742
50.2128
50.1499
50.0854
50.0193
49.9518
49.8827
49.8122
49.7402
49.6668
49.5921
49.516
49.4386
49.3599
49.28
49.1988
49.1165
49.033
48.9483
48.8626
48.7758
48.6879
48.5991
48.5093
48.4185
48.3269
48.2344
48.141
48.0469
47.952
47.8563
47.76
47.663
47.5654
47.4672
47.3684
47.2691
47.1693
47.0691
46.9684
46.8673
46.7659
46.6642
46.5622
46.4599
46.3574
46.2547
46.1519
46.0489
45.9459
45.8428
45.7396
45.6365
45.5334
45.4303
45.3274
45.2245
45.1219
45.0194
44.9171
44.815
44.7133
44.6118
44.5106
44.4098
44.3094
44.2093
44.1097
44.0105
43.9118
43.8136
43.7159
43.6188
43.5222
43.4262
43.3308
43.236
43.1419
43.0485
42.9557
42.8636
42.7723
42.6817
42.5918
42.5027
42.4144
42.3269
42.2402
42.1544
42.0694
41.9852
41.9019
41.8195
41.738
41.6573
41.5776
41.4988
41.421
41.344
41.268
41.193
41.1189
41.0458
40.9737
40.9025
40.8323
40.7632
40.6949
40.6277
40.5615
40.4963
40.4321
40.3689
40.3066
40.2454
40.1852
40.126
40.0678
40.0106
39.9544
39.8992
39.845
39.7918
39.7395
39.6883
39.6381
39.5888
39.5405
39.4932
39.4468
39.4014
39.3569
39.3135
39.2709
39.2293
39.1886
39.1488
39.11
39.0721