/*--------------------------------*- C++ -*----------------------------------*\
| =========                 |                                                 |
| \\      /  F ield         | OpenFOAM: The Open Source CFD Toolbox           |
|  \\    /   O peration     | Version:  2212                                  |
|   \\  /    A nd           | Website:  www.openfoam.com                      |
|    \\/     M anipulation  |                                                 |
\*---------------------------------------------------------------------------*/
FoamFile
{
    version     2.0;
    format      ascii;
    arch        "LSB;label=32;scalar=64";
    class       volScalarField;
    location    "40";
    object      p_rgh;
}
// * * * * * * * * * * * * * * * * * * * * * * * * * * * * * * * * * * * * * //

dimensions      [1 -1 -2 0 0 0 0];

internalField   nonuniform List<scalar> 
204800
(
-15.3012
-15.2931
-15.277
-15.2531
-15.2211
-15.1812
-15.1333
-15.0776
-15.0139
-14.9423
-14.8629
-14.7757
-14.6808
-14.5782
-14.468
-14.3504
-14.2253
-14.0931
-13.9536
-13.807
-13.6533
-13.4926
-13.3251
-13.1509
-12.9702
-12.7829
-12.5893
-12.3895
-12.1835
-11.9716
-11.7539
-11.5304
-11.3014
-11.067
-10.8273
-10.5825
-10.3326
-10.0779
-9.81854
-9.55457
-9.28618
-9.01351
-8.73672
-8.45594
-8.17132
-7.88302
-7.59117
-7.29592
-6.99743
-6.69583
-6.39127
-6.08389
-5.77384
-5.46126
-5.14628
-4.82906
-4.50971
-4.18839
-3.86523
-3.54035
-3.21389
-2.88599
-2.55675
-2.22632
-1.89482
-1.56236
-1.22906
-0.895046
-0.560428
-0.225318
0.110173
0.445937
0.781869
1.11786
1.45382
1.78964
2.12523
2.4605
2.79535
3.12969
3.46344
3.79652
4.12885
4.46034
4.79092
5.12052
5.44907
5.77649
6.10273
6.42771
6.75137
7.07366
7.39451
7.71388
8.0317
8.34792
8.6625
8.97539
9.28654
9.59591
9.90346
10.2092
10.513
10.8148
11.1147
11.4126
11.7085
12.0023
12.2941
12.5837
12.8713
13.1567
13.4399
13.7209
13.9998
14.2764
14.5508
14.823
15.0929
15.3605
15.6259
15.889
16.1498
16.4083
16.6645
16.9185
17.1701
17.4194
17.6664
17.9111
18.1535
18.3936
18.6314
18.867
19.1002
19.3311
19.5597
19.7861
20.0102
20.2321
20.4516
20.669
20.8841
21.0969
21.3076
21.516
21.7223
21.9263
22.1282
22.3279
22.5255
22.7209
22.9142
23.1054
23.2944
23.4814
23.6663
23.8492
24.03
24.2088
24.3855
24.5603
24.733
24.9038
25.0727
25.2395
25.4045
25.5675
25.7287
25.888
26.0454
26.2009
26.3546
26.5065
26.6566
26.8049
26.9514
27.0961
27.2392
27.3805
27.52
27.6579
27.7941
27.9287
28.0616
28.1928
28.3225
28.4505
28.577
28.7019
28.8252
28.947
29.0673
29.186
29.3033
29.4191
29.5334
29.6463
29.7577
29.8677
29.9764
30.0836
30.1894
30.2939
30.3971
30.4989
30.5994
30.6986
30.7965
30.8931
30.9885
31.0826
31.1754
31.2671
31.3575
31.4467
31.5347
31.6216
31.7073
31.7918
31.8752
31.9575
32.0386
32.1186
32.1975
32.2754
32.3521
32.4278
32.5024
32.576
32.6485
32.72
32.7904
32.8599
32.9283
32.9957
33.0622
33.1276
33.1921
33.2556
33.3182
33.3798
33.4404
33.5001
33.5589
33.6167
33.6736
33.7297
33.7848
33.839
33.8923
33.9447
33.9962
34.0469
34.0966
34.1455
34.1936
34.2408
34.2871
34.3326
34.3773
34.4211
34.4641
34.5063
34.5476
34.5881
34.6278
34.6667
34.7048
34.7421
34.7786
34.8143
34.8492
34.8834
34.9167
34.9493
34.9811
35.0121
35.0424
35.0719
35.1006
35.1286
35.1558
35.1823
35.208
35.233
35.2572
35.2807
35.3035
35.3255
35.3468
35.3673
35.3871
35.4062
35.4246
35.4423
35.4592
35.4754
35.4909
35.5057
35.5197
35.5331
35.5457
35.5576
35.5689
35.5794
35.5892
35.5983
35.6067
35.6144
35.6214
35.6277
35.6333
35.6382
35.6424
35.6458
35.6486
35.6507
35.6521
35.6528
-15.2572
-15.2493
-15.2335
-15.2099
-15.1783
-15.139
-15.0918
-15.0369
-14.9741
-14.9035
-14.8253
-14.7393
-14.6457
-14.5445
-14.4357
-14.3194
-14.1958
-14.0647
-13.9264
-13.7809
-13.6283
-13.4687
-13.3022
-13.1289
-12.9489
-12.7624
-12.5694
-12.3702
-12.1648
-11.9534
-11.7361
-11.5131
-11.2845
-11.0505
-10.8112
-10.5667
-10.3172
-10.0629
-9.80387
-9.54028
-9.27227
-9
-8.7236
-8.44322
-8.15902
-7.87113
-7.57971
-7.28491
-6.98685
-6.6857
-6.3816
-6.07468
-5.7651
-5.453
-5.1385
-4.82177
-4.50292
-4.1821
-3.85944
-3.53507
-3.20913
-2.88175
-2.55304
-2.22314
-1.89217
-1.56025
-1.2275
-0.894033
-0.559965
-0.22541
0.109524
0.444727
0.780096
1.11552
1.45091
1.78617
2.12118
2.45587
2.79015
3.12391
3.45709
3.78959
4.12133
4.45224
4.78224
5.11126
5.43922
5.76606
6.09172
6.41611
6.7392
7.0609
7.38118
7.69996
8.0172
8.33285
8.64685
8.95917
9.26975
9.57855
9.88553
10.1906
10.4939
10.7952
11.0945
11.3919
11.6872
11.9805
12.2717
12.5608
12.8478
13.1326
13.4153
13.6958
13.9741
14.2502
14.5241
14.7957
15.0651
15.3322
15.5971
15.8597
16.12
16.378
16.6337
16.8871
17.1383
17.3871
17.6336
17.8779
18.1198
18.3594
18.5967
18.8318
19.0645
19.295
19.5232
19.7491
19.9728
20.1942
20.4133
20.6302
20.8449
21.0573
21.2676
21.4756
21.6814
21.885
22.0865
22.2858
22.483
22.678
22.8709
23.0617
23.2504
23.437
23.6215
23.804
23.9845
24.1629
24.3393
24.5137
24.6861
24.8565
25.025
25.1915
25.3561
25.5189
25.6797
25.8386
25.9957
26.1509
26.3043
26.4559
26.6057
26.7536
26.8999
27.0443
27.187
27.328
27.4673
27.6049
27.7409
27.8751
28.0078
28.1387
28.2681
28.3959
28.5221
28.6467
28.7698
28.8913
29.0114
29.1299
29.2469
29.3624
29.4765
29.5892
29.7004
29.8102
29.9186
30.0256
30.1312
30.2355
30.3384
30.44
30.5403
30.6393
30.737
30.8334
30.9286
31.0225
31.1151
31.2066
31.2968
31.3859
31.4737
31.5604
31.6459
31.7302
31.8135
31.8955
31.9765
32.0564
32.1351
32.2128
32.2894
32.3649
32.4393
32.5128
32.5851
32.6565
32.7268
32.7961
32.8644
32.9317
32.998
33.0633
33.1276
33.191
33.2534
33.3149
33.3754
33.435
33.4936
33.5513
33.6081
33.664
33.719
33.7731
33.8263
33.8786
33.93
33.9806
34.0302
34.079
34.127
34.1741
34.2203
34.2657
34.3103
34.354
34.3969
34.439
34.4803
34.5207
34.5603
34.5991
34.6372
34.6744
34.7108
34.7464
34.7813
34.8153
34.8486
34.8811
34.9128
34.9438
34.974
35.0034
35.0321
35.06
35.0872
35.1136
35.1393
35.1642
35.1884
35.2118
35.2345
35.2565
35.2777
35.2983
35.318
35.3371
35.3554
35.373
35.3899
35.4061
35.4216
35.4363
35.4503
35.4637
35.4763
35.4882
35.4994
35.5099
35.5197
35.5288
35.5371
35.5448
35.5518
35.5581
35.5637
35.5685
35.5727
35.5762
35.579
35.5811
35.5825
35.5832
-15.2523
-15.2445
-15.2287
-15.2053
-15.1739
-15.1348
-15.0878
-15.0332
-14.9707
-14.9006
-14.8227
-14.7372
-14.644
-14.5433
-14.4351
-14.3194
-14.1963
-14.0659
-13.9281
-13.7832
-13.6312
-13.4721
-13.3061
-13.1333
-12.9537
-12.7675
-12.5749
-12.3759
-12.1707
-11.9594
-11.7422
-11.5192
-11.2905
-11.0564
-10.817
-10.5724
-10.3228
-10.0683
-9.80912
-9.54535
-9.27716
-9.00469
-8.7281
-8.44754
-8.16315
-7.87507
-7.58347
-7.28848
-6.99025
-6.68892
-6.38464
-6.07756
-5.76782
-5.45555
-5.1409
-4.82401
-4.50502
-4.18406
-3.86126
-3.53677
-3.2107
-2.88319
-2.55437
-2.22436
-1.89328
-1.56125
-1.2284
-0.894844
-0.560689
-0.226051
0.10896
0.444236
0.779671
1.11516
1.45061
1.78591
2.12098
2.45571
2.79002
3.12382
3.45703
3.78955
4.12131
4.45224
4.78225
5.11127
5.43924
5.76608
6.09172
6.41611
6.73918
7.06087
7.38112
7.69988
8.0171
8.33271
8.64668
8.95895
9.26949
9.57824
9.88518
10.1903
10.4934
10.7947
11.094
11.3912
11.6865
11.9797
12.2709
12.5599
12.8468
13.1316
13.4142
13.6946
13.9728
14.2489
14.5226
14.7942
15.0635
15.3305
15.5953
15.8578
16.118
16.376
16.6316
16.8849
17.136
17.3847
17.6311
17.8753
18.1171
18.3566
18.5939
18.8288
19.0615
19.2918
19.5199
19.7458
19.9693
20.1906
20.4097
20.6265
20.841
21.0534
21.2635
21.4714
21.6772
21.8807
22.0821
22.2813
22.4784
22.6733
22.8661
23.0568
23.2454
23.4319
23.6164
23.7988
23.9791
24.1574
24.3337
24.508
24.6803
24.8507
25.0191
25.1855
25.3501
25.5127
25.6734
25.8323
25.9893
26.1444
26.2977
26.4492
26.5989
26.7468
26.8929
27.0373
27.18
27.3209
27.4601
27.5976
27.7335
27.8677
28.0002
28.1311
28.2604
28.3882
28.5143
28.6388
28.7618
28.8833
29.0033
29.1217
29.2387
29.3541
29.4682
29.5807
29.6919
29.8016
29.9099
30.0169
30.1225
30.2267
30.3295
30.4311
30.5313
30.6302
30.7279
30.8242
30.9193
31.0132
31.1058
31.1972
31.2874
31.3764
31.4642
31.5508
31.6362
31.7205
31.8037
31.8858
31.9667
32.0465
32.1252
32.2028
32.2794
32.3548
32.4292
32.5026
32.5749
32.6462
32.7165
32.7857
32.854
32.9213
32.9875
33.0528
33.1171
33.1804
33.2428
33.3042
33.3647
33.4243
33.4829
33.5406
33.5973
33.6532
33.7081
33.7622
33.8154
33.8676
33.919
33.9695
34.0192
34.068
34.1159
34.163
34.2092
34.2545
34.2991
34.3428
34.3857
34.4277
34.4689
34.5093
34.549
34.5877
34.6257
34.6629
34.6993
34.7349
34.7698
34.8038
34.8371
34.8695
34.9013
34.9322
34.9624
34.9918
35.0205
35.0484
35.0755
35.1019
35.1276
35.1525
35.1766
35.2001
35.2228
35.2447
35.2659
35.2864
35.3062
35.3253
35.3436
35.3612
35.3781
35.3942
35.4097
35.4244
35.4384
35.4518
35.4644
35.4763
35.4875
35.4979
35.5077
35.5168
35.5252
35.5329
35.5398
35.5461
35.5517
35.5566
35.5607
35.5642
35.567
35.5691
35.5705
35.5712
-15.2133
-15.2056
-15.1901
-15.167
-15.1361
-15.0976
-15.0514
-14.9975
-14.936
-14.8669
-14.7902
-14.706
-14.6142
-14.515
-14.4083
-14.2941
-14.1726
-14.0438
-13.9077
-13.7644
-13.614
-13.4565
-13.2921
-13.1207
-12.9425
-12.7577
-12.5662
-12.3683
-12.164
-11.9536
-11.7371
-11.5147
-11.2866
-11.0529
-10.8138
-10.5694
-10.32
-10.0656
-9.80652
-9.54281
-9.27467
-9.00225
-8.72569
-8.44516
-8.1608
-7.87277
-7.58121
-7.28627
-6.9881
-6.68684
-6.38264
-6.07565
-5.76599
-5.45383
-5.13929
-4.82253
-4.50366
-4.18284
-3.86019
-3.53585
-3.20995
-2.88262
-2.55398
-2.22416
-1.89328
-1.56147
-1.22884
-0.895503
-0.561582
-0.227186
0.107575
0.442593
0.777763
1.11298
1.44815
1.78316
2.11794
2.45237
2.78637
3.11985
3.45274
3.78493
4.11636
4.44695
4.77662
5.10529
5.4329
5.75938
6.08466
6.40868
6.73138
7.05269
7.37256
7.69093
8.00776
8.32298
8.63655
8.94843
9.25857
9.56692
9.87344
10.1781
10.4809
10.7817
11.0806
11.3774
11.6723
11.9651
12.2558
12.5444
12.8309
13.1153
13.3975
13.6775
13.9553
14.2309
14.5042
14.7754
15.0442
15.3109
15.5752
15.8373
16.0971
16.3546
16.6098
16.8628
17.1134
17.3617
17.6077
17.8514
18.0929
18.332
18.5688
18.8034
19.0356
19.2656
19.4933
19.7188
19.9419
20.1628
20.3815
20.5979
20.8121
21.0241
21.2338
21.4414
21.6467
21.8499
22.0509
22.2498
22.4465
22.6411
22.8335
23.0239
23.2121
23.3983
23.5824
23.7644
23.9444
24.1224
24.2984
24.4724
24.6444
24.8144
24.9825
25.1486
25.3128
25.4751
25.6355
25.7941
25.9508
26.1056
26.2586
26.4098
26.5592
26.7069
26.8527
26.9968
27.1392
27.2798
27.4188
27.556
27.6916
27.8255
27.9578
28.0885
28.2175
28.345
28.4709
28.5952
28.7179
28.8392
28.9589
29.0771
29.1938
29.3091
29.4229
29.5352
29.6461
29.7556
29.8638
29.9705
30.0758
30.1799
30.2825
30.3839
30.4839
30.5826
30.68
30.7762
30.8711
30.9648
31.0572
31.1484
31.2384
31.3272
31.4148
31.5013
31.5866
31.6707
31.7537
31.8356
31.9163
31.996
32.0745
32.152
32.2284
32.3037
32.378
32.4512
32.5234
32.5945
32.6646
32.7338
32.8019
32.869
32.9351
33.0003
33.0644
33.1276
33.1899
33.2512
33.3116
33.371
33.4295
33.487
33.5437
33.5994
33.6543
33.7082
33.7613
33.8134
33.8647
33.9151
33.9647
34.0134
34.0612
34.1082
34.1543
34.1996
34.244
34.2876
34.3304
34.3724
34.4135
34.4538
34.4934
34.5321
34.57
34.6071
34.6434
34.679
34.7137
34.7477
34.7809
34.8133
34.845
34.8758
34.906
34.9353
34.9639
34.9918
35.0189
35.0452
35.0708
35.0957
35.1198
35.1432
35.1658
35.1877
35.2089
35.2294
35.2491
35.2681
35.2864
35.3039
35.3208
35.3369
35.3524
35.3671
35.3811
35.3943
35.4069
35.4188
35.43
35.4404
35.4502
35.4593
35.4676
35.4753
35.4822
35.4885
35.4941
35.4989
35.5031
35.5066
35.5094
35.5114
35.5128
35.5135
-15.1952
-15.1876
-15.1722
-15.1493
-15.1187
-15.0805
-15.0347
-14.9814
-14.9204
-14.8519
-14.7759
-14.6924
-14.6015
-14.5031
-14.3973
-14.2842
-14.1638
-14.0362
-13.9013
-13.7593
-13.6102
-13.4541
-13.2911
-13.1211
-12.9444
-12.7609
-12.5708
-12.3741
-12.171
-11.9617
-11.7461
-11.5245
-11.297
-11.0638
-10.8251
-10.5809
-10.3315
-10.0772
-9.81792
-9.55402
-9.28561
-9.01286
-8.73596
-8.45505
-8.17031
-7.88188
-7.58992
-7.29458
-6.99601
-6.69436
-6.38977
-6.0824
-5.77237
-5.45984
-5.14495
-4.82784
-4.50863
-4.18748
-3.86451
-3.53986
-3.21366
-2.88603
-2.55711
-2.22702
-1.89588
-1.56381
-1.23094
-0.897368
-0.563223
-0.228614
0.106351
0.441562
0.776916
1.11231
1.44764
1.78281
2.11772
2.45229
2.78642
3.12002
3.45301
3.7853
4.11682
4.44748
4.77722
5.10595
5.43362
5.76014
6.08546
6.4095
6.73222
7.05354
7.37342
7.69179
8.0086
8.32381
8.63736
8.9492
9.2593
9.56761
9.87409
10.1787
10.4814
10.7822
11.081
11.3778
11.6725
11.9652
12.2559
12.5444
12.8308
13.115
13.3971
13.677
13.9547
14.2302
14.5034
14.7744
15.0432
15.3097
15.5739
15.8358
16.0955
16.3529
16.6079
16.8607
17.1112
17.3594
17.6052
17.8488
18.0901
18.3291
18.5657
18.8001
19.0322
19.262
19.4896
19.7149
19.9379
20.1586
20.3771
20.5934
20.8074
21.0192
21.2288
21.4362
21.6414
21.8444
22.0452
22.2439
22.4405
22.6349
22.8272
23.0174
23.2055
23.3915
23.5754
23.7573
23.9372
24.115
24.2908
24.4646
24.6365
24.8063
24.9743
25.1402
25.3043
25.4665
25.6267
25.7851
25.9417
26.0964
26.2492
26.4003
26.5496
26.697
26.8428
26.9867
27.129
27.2695
27.4083
27.5454
27.6808
27.8146
27.9468
28.0773
28.2062
28.3336
28.4593
28.5835
28.7061
28.8273
28.9468
29.0649
29.1815
29.2967
29.4104
29.5226
29.6334
29.7428
29.8508
29.9574
30.0627
30.1666
30.2691
30.3704
30.4703
30.5689
30.6663
30.7623
30.8571
30.9507
31.043
31.1341
31.2241
31.3128
31.4003
31.4866
31.5718
31.6559
31.7388
31.8206
31.9013
31.9808
32.0593
32.1367
32.213
32.2882
32.3624
32.4355
32.5076
32.5787
32.6488
32.7178
32.7859
32.8529
32.919
32.984
33.0481
33.1113
33.1735
33.2347
33.295
33.3544
33.4128
33.4703
33.5269
33.5826
33.6374
33.6913
33.7442
33.7964
33.8476
33.8979
33.9474
33.9961
34.0438
34.0908
34.1368
34.1821
34.2265
34.27
34.3128
34.3547
34.3958
34.4361
34.4756
34.5142
34.5521
34.5892
34.6255
34.661
34.6957
34.7296
34.7628
34.7952
34.8268
34.8576
34.8877
34.9171
34.9456
34.9734
35.0005
35.0268
35.0524
35.0772
35.1013
35.1247
35.1473
35.1692
35.1903
35.2108
35.2305
35.2495
35.2677
35.2853
35.3021
35.3182
35.3336
35.3483
35.3623
35.3756
35.3882
35.4
35.4112
35.4216
35.4314
35.4404
35.4488
35.4564
35.4634
35.4696
35.4752
35.4801
35.4842
35.4877
35.4905
35.4926
35.494
35.4947
-15.1523
-15.1447
-15.1296
-15.107
-15.0769
-15.0392
-14.9941
-14.9415
-14.8814
-14.8139
-14.739
-14.6567
-14.5671
-14.4701
-14.3658
-14.2542
-14.1354
-14.0095
-13.8764
-13.7362
-13.589
-13.4348
-13.2737
-13.1058
-12.931
-12.7496
-12.5615
-12.3668
-12.1656
-11.9581
-11.7443
-11.5244
-11.2984
-11.0665
-10.8289
-10.5857
-10.3371
-10.0833
-9.82451
-9.56084
-9.29254
-9.01979
-8.74279
-8.46173
-8.17677
-7.8881
-7.59588
-7.30027
-7.00143
-6.69951
-6.39465
-6.08702
-5.77674
-5.46398
-5.14886
-4.83153
-4.51212
-4.19078
-3.86763
-3.54282
-3.21647
-2.8887
-2.55966
-2.22945
-1.89821
-1.56606
-1.23311
-0.899482
-0.565289
-0.230645
0.104342
0.439563
0.774914
1.11029
1.44559
1.78072
2.11559
2.45009
2.78414
3.11765
3.45054
3.78273
4.11412
4.44466
4.77425
5.10284
5.43034
5.75669
6.08183
6.40568
6.7282
7.04932
7.36897
7.68712
8.0037
8.31867
8.63197
8.94356
9.2534
9.56143
9.86764
10.172
10.4744
10.7749
11.0734
11.3698
11.6643
11.9567
12.247
12.5352
12.8213
13.1052
13.3869
13.6665
13.9439
14.219
14.4919
14.7626
15.031
15.2971
15.561
15.8226
16.0819
16.3389
16.5936
16.846
17.0961
17.344
17.5895
17.8327
18.0736
18.3122
18.5485
18.7826
19.0143
19.2438
19.4709
19.6959
19.9185
20.1389
20.357
20.573
20.7866
20.9981
21.2073
21.4144
21.6192
21.8219
22.0224
22.2207
22.4169
22.611
22.803
22.9928
23.1806
23.3663
23.5499
23.7314
23.911
24.0885
24.264
24.4375
24.609
24.7785
24.9462
25.1118
25.2756
25.4375
25.5974
25.7555
25.9118
26.0662
26.2188
26.3695
26.5185
26.6657
26.8111
26.9548
27.0968
27.237
27.3756
27.5124
27.6476
27.7811
27.913
28.0433
28.172
28.299
28.4245
28.5485
28.6709
28.7918
28.9111
29.029
29.1453
29.2602
29.3737
29.4857
29.5963
29.7055
29.8132
29.9197
30.0247
30.1284
30.2307
30.3318
30.4315
30.5299
30.627
30.7229
30.8175
30.9109
31.0031
31.094
31.1837
31.2722
31.3596
31.4458
31.5308
31.6147
31.6974
31.779
31.8595
31.9389
32.0172
32.0945
32.1706
32.2457
32.3197
32.3927
32.4647
32.5356
32.6055
32.6744
32.7423
32.8092
32.8751
32.9401
33.004
33.0671
33.1291
33.1902
33.2504
33.3096
33.3679
33.4253
33.4818
33.5374
33.592
33.6458
33.6987
33.7507
33.8018
33.8521
33.9015
33.95
33.9977
34.0445
34.0905
34.1356
34.1799
34.2234
34.2661
34.3079
34.3489
34.3891
34.4285
34.4671
34.5049
34.5419
34.5781
34.6135
34.6482
34.6821
34.7151
34.7475
34.779
34.8098
34.8398
34.8691
34.8976
34.9253
34.9524
34.9786
35.0041
35.0289
35.053
35.0763
35.0988
35.1207
35.1418
35.1622
35.1819
35.2008
35.219
35.2366
35.2534
35.2694
35.2848
35.2995
35.3134
35.3267
35.3392
35.351
35.3622
35.3726
35.3823
35.3914
35.3997
35.4073
35.4143
35.4205
35.4261
35.4309
35.4351
35.4386
35.4413
35.4434
35.4448
35.4455
-15.1206
-15.1131
-15.0982
-15.0758
-15.046
-15.0087
-14.964
-14.9119
-14.8525
-14.7857
-14.7115
-14.63
-14.5412
-14.4452
-14.342
-14.2316
-14.114
-13.9894
-13.8577
-13.719
-13.5733
-13.4208
-13.2614
-13.0952
-12.9222
-12.7426
-12.5565
-12.3638
-12.1646
-11.9591
-11.7472
-11.5292
-11.3051
-11.0749
-10.8389
-10.5972
-10.3498
-10.0971
-9.83902
-9.57592
-9.30796
-9.03535
-8.7583
-8.47704
-8.19176
-7.90266
-7.60994
-7.31379
-7.01436
-6.71185
-6.40639
-6.09814
-5.78727
-5.47391
-5.15821
-4.84031
-4.52035
-4.19846
-3.87479
-3.54946
-3.2226
-2.89435
-2.56482
-2.23416
-1.90247
-1.56989
-1.23652
-0.902492
-0.567913
-0.232896
0.102448
0.438012
0.77369
1.10938
1.44498
1.78039
2.11552
2.45028
2.78457
3.11831
3.45141
3.78379
4.11536
4.44607
4.77582
5.10454
5.43217
5.75864
6.08388
6.40783
6.73042
7.05161
7.37132
7.68951
8.00613
8.32112
8.63443
8.94602
9.25585
9.56387
9.87005
10.1743
10.4767
10.7771
11.0756
11.372
11.6664
11.9587
12.2489
12.537
12.823
13.1068
13.3884
13.6678
13.9451
14.2201
14.4928
14.7633
15.0316
15.2976
15.5613
15.8227
16.0819
16.3387
16.5932
16.8455
17.0954
17.343
17.5884
17.8314
18.0721
18.3105
18.5467
18.7805
19.012
19.2413
19.4683
19.693
19.9154
20.1356
20.3535
20.5692
20.7827
20.9939
21.203
21.4098
21.6145
21.8169
22.0172
22.2153
22.4113
22.6052
22.7969
22.9866
23.1741
23.3596
23.543
23.7244
23.9037
24.081
24.2563
24.4296
24.6009
24.7702
24.9376
25.1031
25.2667
25.4283
25.5881
25.746
25.9021
26.0563
26.2087
26.3592
26.508
26.655
26.8003
26.9438
27.0855
27.2256
27.364
27.5006
27.6356
27.769
27.9007
28.0308
28.1593
28.2862
28.4115
28.5353
28.6576
28.7783
28.8974
29.0151
29.1314
29.2461
29.3594
29.4712
29.5817
29.6907
29.7983
29.9046
30.0095
30.113
30.2152
30.3161
30.4157
30.514
30.611
30.7067
30.8012
30.8945
30.9865
31.0773
31.1669
31.2553
31.3425
31.4286
31.5135
31.5972
31.6798
31.7613
31.8417
31.921
31.9992
32.0763
32.1524
32.2273
32.3013
32.3742
32.446
32.5168
32.5866
32.6554
32.7232
32.79
32.8559
32.9207
32.9846
33.0475
33.1095
33.1705
33.2306
33.2898
33.348
33.4053
33.4617
33.5172
33.5718
33.6255
33.6783
33.7302
33.7812
33.8314
33.8807
33.9292
33.9768
34.0236
34.0695
34.1146
34.1588
34.2022
34.2448
34.2866
34.3275
34.3677
34.407
34.4456
34.4833
34.5202
34.5564
34.5918
34.6264
34.6602
34.6932
34.7255
34.757
34.7877
34.8177
34.8469
34.8754
34.9031
34.9301
34.9563
34.9818
35.0066
35.0306
35.0538
35.0764
35.0982
35.1193
35.1396
35.1593
35.1782
35.1964
35.2139
35.2307
35.2467
35.2621
35.2767
35.2906
35.3039
35.3164
35.3282
35.3393
35.3497
35.3595
35.3685
35.3768
35.3844
35.3914
35.3976
35.4031
35.408
35.4121
35.4156
35.4184
35.4204
35.4218
35.4225
-15.0709
-15.0635
-15.0488
-15.0267
-14.9972
-14.9605
-14.9164
-14.865
-14.8063
-14.7404
-14.6672
-14.5868
-14.4992
-14.4044
-14.3025
-14.1935
-14.0775
-13.9544
-13.8244
-13.6874
-13.5436
-13.3929
-13.2354
-13.0712
-12.9003
-12.7229
-12.5388
-12.3484
-12.1515
-11.9482
-11.7387
-11.523
-11.3012
-11.0733
-10.8395
-10.5999
-10.3546
-10.1036
-9.84727
-9.5856
-9.31882
-9.04714
-8.77075
-8.4899
-8.20479
-7.91568
-7.62278
-7.32631
-7.02648
-6.72349
-6.41752
-6.10874
-5.79732
-5.48342
-5.16719
-4.84876
-4.52829
-4.20591
-3.88176
-3.55596
-3.22866
-2.89998
-2.57005
-2.23899
-1.90692
-1.57398
-1.24027
-0.905918
-0.571031
-0.235725
0.0998911
0.435708
0.771623
1.10753
1.44333
1.77893
2.11423
2.44913
2.78356
3.11741
3.45061
3.78308
4.11472
4.44548
4.77527
5.10402
5.43165
5.75812
6.08334
6.40725
6.7298
7.05092
7.37056
7.68866
8.00518
8.32006
8.63325
8.94471
9.25439
9.56226
9.86827
10.1724
10.4746
10.7748
11.073
11.3692
11.6634
11.9555
12.2455
12.5333
12.819
13.1026
13.384
13.6631
13.9401
14.2148
14.4873
14.7575
15.0255
15.2912
15.5546
15.8157
16.0745
16.3311
16.5853
16.8372
17.0868
17.3341
17.5791
17.8218
18.0622
18.3003
18.5361
18.7696
19.0008
19.2297
19.4563
19.6807
19.9028
20.1227
20.3403
20.5556
20.7687
20.9797
21.1883
21.3948
21.5991
21.8013
22.0012
22.199
22.3947
22.5882
22.7796
22.9689
23.1561
23.3413
23.5244
23.7054
23.8844
24.0614
24.2363
24.4093
24.5803
24.7494
24.9164
25.0816
25.2449
25.4062
25.5657
25.7233
25.879
26.033
26.185
26.3353
26.4838
26.6305
26.7755
26.9187
27.0602
27.2
27.3381
27.4745
27.6092
27.7423
27.8737
28.0036
28.1318
28.2585
28.3835
28.5071
28.629
28.7495
28.8684
28.9859
29.1019
29.2164
29.3294
29.441
29.5513
29.6601
29.7675
29.8735
29.9782
30.0815
30.1835
30.2842
30.3835
30.4816
30.5784
30.6739
30.7682
30.8613
30.9531
31.0437
31.1331
31.2213
31.3084
31.3942
31.4789
31.5625
31.645
31.7263
31.8065
31.8856
31.9636
32.0406
32.1165
32.1913
32.2651
32.3378
32.4095
32.4802
32.5498
32.6185
32.6861
32.7528
32.8185
32.8832
32.9469
33.0097
33.0715
33.1324
33.1924
33.2514
33.3095
33.3667
33.423
33.4783
33.5328
33.5864
33.6391
33.6909
33.7418
33.7919
33.8411
33.8895
33.937
33.9836
34.0294
34.0744
34.1186
34.1619
34.2044
34.2461
34.2869
34.327
34.3662
34.4047
34.4424
34.4792
34.5153
34.5506
34.5851
34.6189
34.6518
34.684
34.7155
34.7461
34.7761
34.8052
34.8336
34.8613
34.8882
34.9144
34.9398
34.9645
34.9884
35.0117
35.0342
35.0559
35.077
35.0973
35.1169
35.1358
35.1539
35.1714
35.1881
35.2041
35.2194
35.234
35.248
35.2611
35.2736
35.2854
35.2965
35.3069
35.3166
35.3256
35.3339
35.3415
35.3484
35.3547
35.3602
35.365
35.3692
35.3726
35.3754
35.3775
35.3788
35.3795
-15.0266
-15.0193
-15.0047
-14.9829
-14.9537
-14.9174
-14.8737
-14.8228
-14.7648
-14.6995
-14.6271
-14.5475
-14.4608
-14.3671
-14.2662
-14.1584
-14.0435
-13.9218
-13.7931
-13.6576
-13.5153
-13.3662
-13.2104
-13.048
-12.879
-12.7034
-12.5214
-12.333
-12.1382
-11.9371
-11.7298
-11.5164
-11.2969
-11.0713
-10.8398
-10.6025
-10.3594
-10.1107
-9.85636
-9.59663
-9.33162
-9.06148
-8.78637
-8.50651
-8.2221
-7.93338
-7.64059
-7.344
-7.04384
-6.74036
-6.43378
-6.12431
-5.81214
-5.49746
-5.18043
-4.86122
-4.53996
-4.21681
-3.8919
-3.56537
-3.23735
-2.90796
-2.57734
-2.24562
-1.91291
-1.57934
-1.24502
-0.910079
-0.574624
-0.23877
0.0973749
0.433701
0.770104
1.10648
1.44273
1.77876
2.11446
2.44976
2.78455
3.11876
3.45229
3.78506
4.11701
4.44804
4.77808
5.10707
5.43493
5.7616
6.08701
6.41109
6.73379
7.05505
7.37482
7.69303
8.00964
8.32459
8.63785
8.94936
9.25908
9.56697
9.87299
10.1771
10.4793
10.7795
11.0777
11.3738
11.6679
11.96
12.2499
12.5376
12.8233
13.1067
13.388
13.667
13.9438
14.2184
14.4907
14.7608
15.0286
15.2941
15.5574
15.8183
16.077
16.3333
16.5873
16.8391
17.0885
17.3356
17.5804
17.8228
18.063
18.3009
18.5364
18.7697
19.0007
19.2294
19.4558
19.6799
19.9018
20.1214
20.3387
20.5538
20.7667
20.9774
21.1858
21.3921
21.5961
21.798
21.9977
22.1952
22.3906
22.5839
22.7751
22.9641
23.1511
23.336
23.5188
23.6996
23.8783
24.0551
24.2298
24.4025
24.5733
24.7421
24.9089
25.0739
25.2369
25.398
25.5572
25.7146
25.8701
26.0238
26.1756
26.3257
26.4739
26.6204
26.7651
26.9081
27.0494
27.189
27.3268
27.463
27.5975
27.7304
27.8616
27.9913
28.1193
28.2457
28.3706
28.4939
28.6157
28.7359
28.8547
28.9719
29.0877
29.202
29.3149
29.4263
29.5363
29.6449
29.7522
29.858
29.9625
30.0657
30.1675
30.268
30.3672
30.4651
30.5617
30.6571
30.7512
30.8441
30.9358
31.0262
31.1155
31.2035
31.2904
31.3761
31.4607
31.5441
31.6264
31.7076
31.7877
31.8667
31.9445
32.0214
32.0971
32.1718
32.2454
32.318
32.3896
32.4601
32.5297
32.5982
32.6657
32.7323
32.7978
32.8624
32.9261
32.9887
33.0505
33.1112
33.1711
33.23
33.288
33.3451
33.4013
33.4565
33.5109
33.5644
33.617
33.6687
33.7196
33.7695
33.8187
33.8669
33.9144
33.9609
34.0067
34.0516
34.0956
34.1389
34.1813
34.2229
34.2637
34.3037
34.3429
34.3812
34.4188
34.4556
34.4917
34.5269
34.5613
34.595
34.6279
34.6601
34.6915
34.7221
34.7519
34.781
34.8094
34.837
34.8639
34.89
34.9154
34.94
34.9639
34.9871
35.0096
35.0313
35.0523
35.0726
35.0921
35.111
35.1291
35.1465
35.1632
35.1792
35.1945
35.2091
35.223
35.2362
35.2486
35.2604
35.2715
35.2819
35.2915
35.3005
35.3088
35.3164
35.3233
35.3295
35.335
35.3399
35.344
35.3475
35.3502
35.3523
35.3537
35.3543
-14.9687
-14.9615
-14.9471
-14.9255
-14.8967
-14.8608
-14.8177
-14.7675
-14.7101
-14.6456
-14.5741
-14.4955
-14.4099
-14.3173
-14.2177
-14.1111
-13.9977
-13.8774
-13.7503
-13.6163
-13.4757
-13.3284
-13.1744
-13.0139
-12.8468
-12.6733
-12.4933
-12.307
-12.1144
-11.9156
-11.7106
-11.4995
-11.2824
-11.0593
-10.8303
-10.5954
-10.3549
-10.1086
-9.85683
-9.59954
-9.33688
-9.06897
-8.79593
-8.5179
-8.23507
-7.94763
-7.65581
-7.35984
-7.05999
-6.75654
-6.44974
-6.13985
-5.82712
-5.51179
-5.19404
-4.87407
-4.55205
-4.22813
-3.90247
-3.57519
-3.24645
-2.91636
-2.58506
-2.25267
-1.91932
-1.58513
-1.25022
-0.914704
-0.578697
-0.242314
0.0943363
0.431146
0.768009
1.10482
1.44149
1.77791
2.11399
2.44963
2.78475
3.11926
3.45308
3.78611
4.1183
4.44955
4.7798
5.10897
5.43699
5.7638
6.08933
6.41352
6.73631
7.05765
7.37746
7.69571
8.01234
8.3273
8.64054
8.95202
9.2617
9.56953
9.87549
10.1795
10.4816
10.7817
11.0798
11.3758
11.6698
11.9616
12.2513
12.5389
12.8244
13.1076
13.3887
13.6675
13.9441
14.2185
14.4905
14.7604
15.0279
15.2932
15.5562
15.8168
16.0752
16.3313
16.585
16.8364
17.0856
17.3323
17.5768
17.819
18.0589
18.2964
18.5317
18.7646
18.9953
19.2236
19.4497
19.6735
19.895
20.1143
20.3313
20.5461
20.7586
20.969
21.1771
21.383
21.5867
21.7882
21.9876
22.1848
22.3799
22.5728
22.7636
22.9524
23.139
23.3235
23.506
23.6865
23.8649
24.0413
24.2157
24.3881
24.5585
24.727
24.8935
25.0581
25.2208
25.3816
25.5405
25.6976
25.8528
26.0062
26.1577
26.3075
26.4554
26.6016
26.746
26.8887
27.0297
27.169
27.3065
27.4424
27.5767
27.7093
27.8402
27.9696
28.0973
28.2235
28.3481
28.4711
28.5927
28.7126
28.8311
28.9481
29.0637
29.1777
29.2903
29.4015
29.5113
29.6197
29.7267
29.8323
29.9365
30.0395
30.141
30.2413
30.3403
30.438
30.5344
30.6296
30.7235
30.8161
30.9076
30.9978
31.0869
31.1747
31.2614
31.347
31.4313
31.5146
31.5967
31.6777
31.7576
31.8364
31.9141
31.9907
32.0663
32.1408
32.2143
32.2867
32.3581
32.4285
32.4979
32.5662
32.6336
32.7
32.7654
32.8299
32.8933
32.9559
33.0175
33.0781
33.1378
33.1966
33.2545
33.3114
33.3674
33.4226
33.4768
33.5302
33.5827
33.6343
33.685
33.7349
33.7839
33.832
33.8794
33.9258
33.9714
34.0162
34.0602
34.1033
34.1457
34.1872
34.2279
34.2678
34.3069
34.3452
34.3827
34.4194
34.4553
34.4905
34.5249
34.5585
34.5913
34.6234
34.6547
34.6852
34.715
34.744
34.7723
34.7999
34.8267
34.8527
34.8781
34.9027
34.9265
34.9496
34.972
34.9937
35.0147
35.0349
35.0544
35.0732
35.0913
35.1087
35.1254
35.1413
35.1566
35.1711
35.185
35.1981
35.2106
35.2223
35.2333
35.2437
35.2534
35.2623
35.2706
35.2782
35.2851
35.2912
35.2968
35.3016
35.3057
35.3091
35.3119
35.3139
35.3153
35.316
-14.9125
-14.9053
-14.8911
-14.8697
-14.8412
-14.8057
-14.763
-14.7133
-14.6566
-14.5928
-14.522
-14.4442
-14.3595
-14.2678
-14.1693
-14.0639
-13.9516
-13.8326
-13.7068
-13.5743
-13.4351
-13.2894
-13.1371
-12.9782
-12.8129
-12.6412
-12.4632
-12.2789
-12.0883
-11.8916
-11.6888
-11.4799
-11.2651
-11.0443
-10.8176
-10.5852
-10.3471
-10.1034
-9.85409
-9.59932
-9.33917
-9.07371
-8.80306
-8.52732
-8.24661
-7.9611
-7.67093
-7.37631
-7.07747
-6.77465
-6.46814
-6.15821
-5.84516
-5.52928
-5.21081
-4.89001
-4.56709
-4.24224
-3.91562
-3.5874
-3.25772
-2.92671
-2.5945
-2.26123
-1.92702
-1.592
-1.25627
-0.91997
-0.583201
-0.246082
0.0912803
0.428776
0.7663
1.10375
1.44103
1.77803
2.11467
2.45085
2.78648
3.12148
3.45576
3.78924
4.12184
4.45348
4.7841
5.11362
5.44197
5.76908
6.09489
6.41935
6.74238
7.06393
7.38394
7.70237
8.01916
8.33427
8.64764
8.95922
9.26899
9.5769
9.88291
10.187
10.4891
10.7892
11.0873
11.3833
11.6772
11.969
12.2587
12.5462
12.8316
13.1147
13.3957
13.6744
13.9509
14.2251
14.4971
14.7667
15.0341
15.2992
15.562
15.8225
16.0807
16.3365
16.5901
16.8413
17.0902
17.3368
17.581
17.823
18.0626
18.2999
18.5349
18.7676
18.998
19.2261
19.4519
19.6754
19.8967
20.1157
20.3325
20.547
20.7592
20.9693
21.1771
21.3827
21.5862
21.7874
21.9865
22.1834
22.3782
22.5709
22.7614
22.9498
23.1362
23.3204
23.5026
23.6828
23.8609
24.0371
24.2112
24.3833
24.5534
24.7216
24.8879
25.0522
25.2146
25.3751
25.5338
25.6906
25.8455
25.9986
26.1499
26.2993
26.447
26.593
26.7371
26.8796
27.0203
27.1593
27.2966
27.4322
27.5662
27.6986
27.8293
27.9584
28.0859
28.2118
28.3362
28.459
28.5803
28.7
28.8183
28.935
29.0503
29.1642
29.2766
29.3875
29.4971
29.6053
29.712
29.8174
29.9215
30.0242
30.1256
30.2257
30.3244
30.4219
30.5181
30.6131
30.7068
30.7993
30.8906
30.9806
31.0695
31.1572
31.2437
31.329
31.4132
31.4963
31.5783
31.6591
31.7388
31.8175
31.895
31.9715
32.0469
32.1213
32.1946
32.2669
32.3381
32.4083
32.4776
32.5458
32.613
32.6793
32.7446
32.8089
32.8722
32.9346
32.9961
33.0566
33.1162
33.1749
33.2326
33.2894
33.3454
33.4004
33.4545
33.5078
33.5601
33.6116
33.6623
33.712
33.7609
33.809
33.8562
33.9026
33.9481
33.9928
34.0367
34.0797
34.1219
34.1634
34.204
34.2438
34.2828
34.321
34.3585
34.3951
34.431
34.466
34.5003
34.5339
34.5666
34.5986
34.6299
34.6604
34.6901
34.7191
34.7473
34.7748
34.8015
34.8275
34.8528
34.8773
34.9012
34.9242
34.9466
34.9682
34.9891
35.0093
35.0288
35.0476
35.0656
35.083
35.0996
35.1155
35.1307
35.1453
35.1591
35.1722
35.1846
35.1963
35.2074
35.2177
35.2273
35.2363
35.2445
35.2521
35.2589
35.2651
35.2706
35.2754
35.2795
35.283
35.2857
35.2878
35.2892
35.2898
-14.8454
-14.8383
-14.8242
-14.8031
-14.775
-14.7399
-14.6977
-14.6486
-14.5925
-14.5295
-14.4595
-14.3826
-14.2989
-14.2083
-14.1109
-14.0067
-13.8958
-13.7781
-13.6537
-13.5227
-13.3851
-13.241
-13.0904
-12.9333
-12.7698
-12.6
-12.4239
-12.2416
-12.0531
-11.8585
-11.6579
-11.4512
-11.2387
-11.0203
-10.796
-10.5661
-10.3305
-10.0893
-9.84257
-9.59042
-9.33291
-9.0701
-8.8021
-8.52898
-8.25085
-7.9678
-7.67996
-7.38747
-7.09049
-6.78922
-6.48389
-6.17476