/*--------------------------------*- C++ -*----------------------------------*\
| =========                 |                                                 |
| \\      /  F ield         | OpenFOAM: The Open Source CFD Toolbox           |
|  \\    /   O peration     | Version:  2212                                  |
|   \\  /    A nd           | Website:  www.openfoam.com                      |
|    \\/     M anipulation  |                                                 |
\*---------------------------------------------------------------------------*/
FoamFile
{
    version     2.0;
    format      ascii;
    arch        "LSB;label=32;scalar=64";
    class       volScalarField;
    location    "40";
    object      p_rgh_0;
}
// * * * * * * * * * * * * * * * * * * * * * * * * * * * * * * * * * * * * * //

dimensions      [1 -1 -2 0 0 0 0];

internalField   nonuniform List<scalar> 
204800
(
-15.2642
-15.2561
-15.24
-15.2161
-15.1841
-15.1443
-15.0965
-15.0408
-14.9771
-14.9056
-14.8263
-14.7392
-14.6444
-14.5419
-14.4318
-14.3142
-14.1893
-14.0571
-13.9178
-13.7713
-13.6177
-13.4572
-13.2898
-13.1158
-12.9352
-12.7481
-12.5547
-12.355
-12.1493
-11.9375
-11.72
-11.4967
-11.2679
-11.0337
-10.7942
-10.5496
-10.3
-10.0455
-9.78633
-9.52259
-9.25443
-8.982
-8.70544
-8.42491
-8.14054
-7.85248
-7.56088
-7.26589
-6.96766
-6.66632
-6.36202
-6.05491
-5.74513
-5.43282
-5.11812
-4.80118
-4.48212
-4.16109
-3.83821
-3.51363
-3.18747
-2.85987
-2.53094
-2.20082
-1.86963
-1.53749
-1.20452
-0.870836
-0.536551
-0.201781
0.133366
0.468779
0.804355
1.13999
1.47558
1.81103
2.14624
2.48112
2.81558
3.14953
3.48289
3.81556
4.14748
4.47856
4.80873
5.13791
5.46604
5.79304
6.11884
6.44339
6.76662
7.08847
7.40887
7.72779
8.04516
8.36093
8.67505
8.98748
9.29817
9.60708
9.91417
10.2194
10.5227
10.8241
11.1236
11.421
11.7164
12.0098
12.3011
12.5903
12.8774
13.1623
13.4451
13.7257
14.0041
14.2802
14.5542
14.8259
15.0954
15.3626
15.6275
15.8902
16.1505
16.4086
16.6644
16.9179
17.1691
17.418
17.6646
17.9089
18.1509
18.3906
18.628
18.8631
19.0959
19.3264
19.5547
19.7807
20.0044
20.2258
20.4451
20.662
20.8768
21.0893
21.2996
21.5076
21.7135
21.9173
22.1188
22.3182
22.5154
22.7105
22.9035
23.0944
23.2831
23.4698
23.6544
23.837
24.0175
24.196
24.3725
24.547
24.7195
24.89
25.0586
25.2252
25.3899
25.5527
25.7136
25.8727
26.0299
26.1852
26.3387
26.4904
26.6403
26.7884
26.9347
27.0793
27.2221
27.3632
27.5027
27.6404
27.7764
27.9108
28.0436
28.1747
28.3042
28.4322
28.5585
28.6833
28.8065
28.9282
29.0484
29.167
29.2842
29.3999
29.5142
29.627
29.7384
29.8483
29.9569
30.0641
30.1699
30.2744
30.3775
30.4793
30.5798
30.679
30.7769
30.8735
30.9689
31.063
31.1558
31.2475
31.338
31.4272
31.5153
31.6022
31.6879
31.7725
31.8559
31.9382
32.0194
32.0995
32.1784
32.2563
32.3331
32.4089
32.4835
32.5572
32.6297
32.7013
32.7718
32.8413
32.9098
32.9773
33.0438
33.1094
33.1739
33.2375
33.3001
33.3617
33.4225
33.4822
33.5411
33.599
33.656
33.712
33.7672
33.8215
33.8748
33.9273
33.9789
34.0296
34.0794
34.1284
34.1765
34.2238
34.2702
34.3157
34.3604
34.4043
34.4473
34.4895
34.5309
34.5715
34.6113
34.6502
34.6883
34.7257
34.7622
34.798
34.8329
34.8671
34.9005
34.9331
34.9649
34.996
35.0263
35.0558
35.0846
35.1126
35.1399
35.1664
35.1921
35.2171
35.2414
35.2649
35.2877
35.3097
35.331
35.3516
35.3715
35.3906
35.409
35.4266
35.4436
35.4598
35.4753
35.4901
35.5042
35.5176
35.5302
35.5422
35.5534
35.5639
35.5738
35.5829
35.5913
35.599
35.606
35.6123
35.6179
35.6228
35.627
35.6305
35.6333
35.6354
35.6368
35.6375
-15.2203
-15.2124
-15.1966
-15.173
-15.1415
-15.1022
-15.0551
-15.0002
-14.9374
-14.867
-14.7887
-14.7029
-14.6093
-14.5082
-14.3995
-14.2834
-14.1598
-14.0289
-13.8907
-13.7453
-13.5929
-13.4334
-13.267
-13.0938
-12.914
-12.7277
-12.5349
-12.3358
-12.1306
-11.9194
-11.7023
-11.4795
-11.2511
-11.0173
-10.7781
-10.5339
-10.2846
-10.0305
-9.77173
-9.50837
-9.24059
-8.96855
-8.69239
-8.41225
-8.12829
-7.84066
-7.54949
-7.25493
-6.95714
-6.65625
-6.35241
-6.04576
-5.73645
-5.42461
-5.1104
-4.79394
-4.47538
-4.15484
-3.83247
-3.5084
-3.18276
-2.85568
-2.52728
-2.19769
-1.86704
-1.53544
-1.20301
-0.869868
-0.536134
-0.201917
0.132673
0.467526
0.802539
1.13761
1.47263
1.80751
2.14215
2.47646
2.81034
3.14372
3.47649
3.80859
4.13993
4.47043
4.80002
5.12862
5.45616
5.78258
6.1078
6.43177
6.75441
7.07568
7.39551
7.71385
8.03064
8.34583
8.65938
8.97124
9.28136
9.58969
9.89621
10.2009
10.5036
10.8045
11.1034
11.4002
11.6951
11.9879
12.2787
12.5673
12.8538
13.1382
13.4205
13.7005
13.9784
14.254
14.5275
14.7986
15.0676
15.3343
15.5987
15.8608
16.1207
16.3783
16.6336
16.8866
17.1373
17.3857
17.6318
17.8756
18.1171
18.3563
18.5933
18.8279
19.0603
19.2903
19.5181
19.7437
19.967
20.188
20.4067
20.6233
20.8376
21.0497
21.2595
21.4672
21.6727
21.876
22.0771
22.2761
22.4729
22.6676
22.8602
23.0507
23.2391
23.4254
23.6096
23.7918
23.972
24.1501
24.3262
24.5004
24.6725
24.8427
25.0109
25.1772
25.3416
25.5041
25.6647
25.8234
25.9802
26.1352
26.2884
26.4398
26.5894
26.7372
26.8832
27.0275
27.17
27.3109
27.45
27.5874
27.7232
27.8573
27.9898
28.1207
28.2499
28.3776
28.5036
28.6282
28.7511
28.8726
28.9925
29.1109
29.2279
29.3433
29.4573
29.5699
29.6811
29.7908
29.8992
30.0061
30.1117
30.216
30.3189
30.4205
30.5207
30.6197
30.7174
30.8138
30.909
31.0029
31.0956
31.1871
31.2773
31.3664
31.4543
31.541
31.6265
31.7109
31.7942
31.8763
31.9573
32.0372
32.116
32.1938
32.2704
32.346
32.4205
32.494
32.5664
32.6378
32.7082
32.7776
32.8459
32.9133
32.9796
33.045
33.1094
33.1729
33.2354
33.2969
33.3575
33.4171
33.4758
33.5336
33.5905
33.6464
33.7015
33.7556
33.8089
33.8612
33.9127
33.9633
34.0131
34.0619
34.1099
34.1571
34.2034
34.2488
34.2935
34.3372
34.3802
34.4223
34.4636
34.5041
34.5438
34.5826
34.6207
34.658
34.6944
34.7301
34.765
34.7991
34.8324
34.8649
34.8967
34.9277
34.9579
34.9874
35.0161
35.0441
35.0713
35.0977
35.1234
35.1484
35.1726
35.1961
35.2188
35.2408
35.2621
35.2826
35.3024
35.3215
35.3398
35.3575
35.3744
35.3906
35.4061
35.4208
35.4349
35.4482
35.4608
35.4728
35.484
35.4945
35.5043
35.5134
35.5218
35.5294
35.5364
35.5427
35.5483
35.5532
35.5574
35.5609
35.5637
35.5658
35.5672
35.5679
-15.2154
-15.2075
-15.1918
-15.1684
-15.1371
-15.098
-15.0511
-14.9965
-14.9341
-14.864
-14.7862
-14.7007
-14.6077
-14.5071
-14.3989
-14.2834
-14.1604
-14.03
-13.8924
-13.7476
-13.5957
-13.4368
-13.2709
-13.0983
-12.9189
-12.7329
-12.5404
-12.3415
-12.1365
-11.9254
-11.7084
-11.4856
-11.2571
-11.0232
-10.784
-10.5396
-10.2902
-10.036
-9.77699
-9.51345
-9.24549
-8.97326
-8.6969
-8.41658
-8.13243
-7.84461
-7.55325
-7.25852
-6.96054
-6.65948
-6.35546
-6.04865
-5.73917
-5.42718
-5.11281
-4.7962
-4.47749
-4.15681
-3.83431
-3.51011
-3.18434
-2.85713
-2.52862
-2.19891
-1.86815
-1.53645
-1.20392
-0.87069
-0.536868
-0.202569
0.132098
0.467025
0.802105
1.13724
1.47232
1.80725
2.14194
2.47629
2.81021
3.14362
3.47642
3.80854
4.1399
4.47042
4.80002
5.12862
5.45617
5.78258
6.1078
6.43176
6.75439
7.07564
7.39545
7.71376
8.03052
8.34569
8.6592
8.97102
9.28109
9.58939
9.89586
10.2005
10.5032
10.804
11.1028
11.3996
11.6944
11.9872
12.2778
12.5664
12.8529
13.1372
13.4194
13.6993
13.9771
14.2527
14.526
14.7971
15.066
15.3326
15.5969
15.859
16.1188
16.3763
16.6315
16.8844
17.135
17.3833
17.6293
17.873
18.1144
18.3536
18.5904
18.8249
19.0572
19.2872
19.5149
19.7403
19.9635
20.1844
20.4031
20.6195
20.8337
21.0457
21.2555
21.4631
21.6685
21.8717
22.0727
22.2716
22.4683
22.6629
22.8554
23.0458
23.2341
23.4203
23.6045
23.7866
23.9666
24.1447
24.3207
24.4947
24.6668
24.8369
25.005
25.1712
25.3355
25.4979
25.6584
25.817
25.9738
26.1287
26.2818
26.4331
26.5826
26.7303
26.8763
27.0205
27.163
27.3037
27.4428
27.5801
27.7158
27.8499
27.9823
28.1131
28.2422
28.3698
28.4958
28.6203
28.7432
28.8645
28.9844
29.1028
29.2196
29.335
29.449
29.5615
29.6726
29.7823
29.8905
29.9974
30.103
30.2072
30.31
30.4115
30.5118
30.6107
30.7083
30.8047
30.8998
30.9936
31.0863
31.1777
31.2679
31.3569
31.4447
31.5314
31.6169
31.7012
31.7845
31.8665
31.9475
32.0274
32.1061
32.1838
32.2604
32.3359
32.4104
32.4838
32.5562
32.6276
32.6979
32.7672
32.8356
32.9029
32.9692
33.0346
33.0989
33.1623
33.2248
33.2863
33.3468
33.4064
33.4651
33.5229
33.5797
33.6356
33.6906
33.7447
33.798
33.8503
33.9017
33.9523
34.002
34.0509
34.0988
34.146
34.1922
34.2377
34.2823
34.326
34.3689
34.411
34.4523
34.4928
34.5324
34.5713
34.6093
34.6465
34.683
34.7186
34.7535
34.7876
34.8209
34.8534
34.8851
34.9161
34.9463
34.9758
35.0045
35.0324
35.0596
35.086
35.1117
35.1367
35.1609
35.1843
35.207
35.229
35.2503
35.2708
35.2906
35.3097
35.328
35.3456
35.3625
35.3787
35.3942
35.4089
35.423
35.4363
35.4489
35.4608
35.472
35.4825
35.4923
35.5014
35.5098
35.5175
35.5245
35.5308
35.5363
35.5412
35.5454
35.5489
35.5517
35.5538
35.5552
35.5559
-15.1764
-15.1687
-15.1533
-15.1302
-15.0993
-15.0609
-15.0147
-14.9609
-14.8994
-14.8304
-14.7538
-14.6696
-14.5779
-14.4788
-14.3722
-14.2581
-14.1368
-14.008
-13.8721
-13.7289
-13.5786
-13.4213
-13.257
-13.0858
-12.9078
-12.723
-12.5318
-12.334
-12.1299
-11.9197
-11.7034
-11.4812
-11.2532
-11.0197
-10.7808
-10.5367
-10.2875
-10.0333
-9.77444
-9.51096
-9.24305
-8.97086
-8.69454
-8.41425
-8.13014
-7.84235
-7.55104
-7.25636
-6.95844
-6.65744
-6.35351
-6.04678
-5.73739
-5.4255
-5.11124
-4.79475
-4.47617
-4.15564
-3.83328
-3.50923
-3.18363
-2.8566
-2.52827
-2.19876
-1.86819
-1.5367
-1.20439
-0.871383
-0.537795
-0.203738
0.13068
0.465349
0.800165
1.13502
1.46982
1.80447
2.13886
2.47291
2.80653
3.13962
3.47211
3.8039
4.13493
4.4651
4.79436
5.12262
5.44981
5.77586
6.10072
6.42431
6.74657
7.06744
7.38687
7.7048
8.02117
8.33594
8.64906
8.96048
9.27015
9.57805
9.88411
10.1883
10.4906
10.791
11.0894
11.3858
11.6802
11.9725
12.2628
12.551
12.837
13.1209
13.4026
13.6822
13.9595
14.2347
14.5076
14.7783
15.0467
15.3129
15.5768
15.8385
16.0978
16.3549
16.6097
16.8622
17.1124
17.3603
17.6059
17.8492
18.0902
18.329
18.5654
18.7995
19.0314
19.261
19.4883
19.7133
19.9361
20.1566
20.3749
20.591
20.8048
21.0164
21.2258
21.433
21.638
21.8409
22.0416
22.2401
22.4365
22.6307
22.8228
23.0129
23.2008
23.3867
23.5705
23.7523
23.932
24.1097
24.2854
24.4591
24.6308
24.8006
24.9684
25.1343
25.2983
25.4604
25.6206
25.7789
25.9354
26.09
26.2428
26.3938
26.543
26.6904
26.8361
26.98
27.1222
27.2627
27.4015
27.5386
27.674
27.8078
27.9399
28.0704
28.1994
28.3267
28.4525
28.5766
28.6993
28.8204
28.9401
29.0582
29.1748
29.29
29.4037
29.516
29.6269
29.7363
29.8444
29.9511
30.0564
30.1604
30.263
30.3643
30.4644
30.5631
30.6605
30.7567
30.8516
30.9453
31.0377
31.129
31.219
31.3078
31.3955
31.4819
31.5673
31.6514
31.7345
31.8164
31.8972
31.9769
32.0555
32.133
32.2095
32.2849
32.3592
32.4325
32.5047
32.5759
32.6461
32.7153
32.7835
32.8506
32.9168
32.982
33.0463
33.1096
33.1719
33.2332
33.2937
33.3532
33.4117
33.4694
33.5261
33.5819
33.6368
33.6908
33.7439
33.7961
33.8475
33.8979
33.9475
33.9963
34.0442
34.0912
34.1374
34.1827
34.2272
34.2709
34.3137
34.3557
34.3969
34.4373
34.4769
34.5156
34.5536
34.5907
34.6271
34.6627
34.6975
34.7315
34.7647
34.7972
34.8289
34.8598
34.8899
34.9193
34.948
34.9759
35.003
35.0294
35.055
35.0799
35.104
35.1274
35.1501
35.172
35.1932
35.2137
35.2335
35.2525
35.2708
35.2884
35.3053
35.3214
35.3369
35.3516
35.3656
35.3789
35.3915
35.4034
35.4146
35.4251
35.4348
35.4439
35.4523
35.4599
35.4669
35.4732
35.4787
35.4836
35.4878
35.4913
35.4941
35.4962
35.4975
35.4982
-15.1584
-15.1507
-15.1354
-15.1125
-15.082
-15.0438
-14.998
-14.9447
-14.8838
-14.8154
-14.7395
-14.6561
-14.5652
-14.4669
-14.3612
-14.2482
-14.128
-14.0004
-13.8657
-13.7238
-13.5749
-13.4189
-13.256
-13.0862
-12.9096
-12.7263
-12.5363
-12.3399
-12.137
-11.9278
-11.7124
-11.491
-11.2637
-11.0307
-10.7921
-10.5482
-10.299
-10.0449
-9.78587
-9.52219
-9.25401
-8.9815
-8.70482
-8.42416
-8.13966
-7.85148
-7.55977
-7.26468
-6.96637
-6.66498
-6.36066
-6.05355
-5.74379
-5.43153
-5.11692
-4.80008
-4.48116
-4.16029
-3.83762
-3.51326
-3.18735
-2.86003
-2.53141
-2.20163
-1.87081
-1.53906
-1.2065
-0.873265
-0.539452
-0.205181
0.129441
0.464303
0.799303
1.13434
1.4693
1.8041
2.13864
2.47282
2.80656
3.13977
3.47236
3.80425
4.13537
4.46562
4.79495
5.12327
5.45051
5.77661
6.1015
6.42512
6.7474
7.06828
7.38772
7.70564
8.02201
8.33676
8.64985
8.96124
9.27088
9.57873
9.88475
10.1889
10.4911
10.7914
11.0898
11.3861
11.6804
11.9727
12.2628
12.5509
12.8368
13.1206
13.4023
13.6817
13.9589
14.234
14.5068
14.7773
15.0457
15.3117
15.5755
15.837
16.0962
16.3532
16.6078
16.8601
17.1102
17.358
17.6034
17.8466
18.0874
18.326
18.5623
18.7963
19.028
19.2574
19.4845
19.7094
19.9321
20.1524
20.3706
20.5864
20.8001
21.0116
21.2208
21.4278
21.6327
21.8354
22.0359
22.2342
22.4305
22.6246
22.8165
23.0064
23.1942
23.3799
23.5635
23.7451
23.9247
24.1023
24.2778
24.4514
24.6229
24.7926
24.9602
25.126
25.2898
25.4517
25.6118
25.7699
25.9263
26.0807
26.2334
26.3843
26.5333
26.6806
26.8261
26.9699
27.112
27.2523
27.391
27.5279
27.6632
27.7969
27.9289
28.0593
28.1881
28.3153
28.4409
28.565
28.6875
28.8085
28.928
29.046
29.1626
29.2776
29.3912
29.5034
29.6142
29.7235
29.8315
29.938
30.0433
30.1471
30.2497
30.3509
30.4508
30.5494
30.6467
30.7428
30.8376
30.9312
31.0236
31.1147
31.2046
31.2934
31.3809
31.4673
31.5525
31.6366
31.7196
31.8014
31.8821
31.9618
32.0403
32.1177
32.1941
32.2694
32.3436
32.4168
32.489
32.5601
32.6303
32.6994
32.7675
32.8346
32.9007
32.9658
33.03
33.0932
33.1555
33.2168
33.2771
33.3366
33.3951
33.4526
33.5093
33.565
33.6199
33.6738
33.7269
33.7791
33.8304
33.8808
33.9303
33.979
34.0268
34.0738
34.1199
34.1652
34.2097
34.2533
34.2961
34.3381
34.3792
34.4196
34.4591
34.4978
34.5357
34.5728
34.6092
34.6447
34.6795
34.7134
34.7466
34.7791
34.8107
34.8416
34.8717
34.9011
34.9297
34.9575
34.9846
35.011
35.0366
35.0614
35.0856
35.109
35.1316
35.1535
35.1747
35.1952
35.2149
35.2339
35.2522
35.2698
35.2866
35.3028
35.3182
35.3329
35.3469
35.3602
35.3728
35.3846
35.3958
35.4063
35.416
35.4251
35.4335
35.4411
35.4481
35.4543
35.4599
35.4648
35.4689
35.4724
35.4752
35.4773
35.4787
35.4794
-15.1155
-15.1079
-15.0928
-15.0703
-15.0401
-15.0026
-14.9575
-14.9049
-14.8449
-14.7775
-14.7026
-14.6204
-14.5308
-14.4339
-14.3297
-14.2183
-14.0996
-13.9738
-13.8408
-13.7008
-13.5537
-13.3997
-13.2387
-13.0709
-12.8963
-12.715
-12.5271
-12.3326
-12.1316
-11.9243
-11.7107
-11.4909
-11.2651
-11.0335
-10.7961
-10.5531
-10.3047
-10.0511
-9.79249
-9.52906
-9.26098
-8.98847
-8.7117
-8.43087
-8.14616
-7.85774
-7.56577
-7.27041
-6.97183
-6.67016
-6.36557
-6.0582
-5.74819
-5.4357
-5.12085
-4.8038
-4.48468
-4.16362
-3.84077
-3.51625
-3.19019
-2.86273
-2.53399
-2.2041
-1.87317
-1.54133
-1.20871
-0.875406
-0.541545
-0.207239
0.127406
0.462279
0.797276
1.13229
1.46723
1.80199
2.13648
2.4706
2.80426
3.13738
3.46988
3.80166
4.13265
4.46278
4.79196
5.12013
5.44722
5.77314
6.09785
6.42128
6.74336
7.06404
7.38326
7.70096
8.01709
8.3316
8.64445
8.95559
9.26496
9.57254
9.87829
10.1822
10.4841
10.7841
11.0822
11.3782
11.6722
11.9641
12.254
12.5417
12.8273
13.1108
13.3921
13.6712
13.9481
14.2228
14.4953
14.7655
15.0335
15.2992
15.5626
15.8237
16.0826
16.3392
16.5935
16.8455
17.0952
17.3426
17.5877
17.8305
18.071
18.3092
18.5451
18.7787
19.0101
19.2391
19.4659
19.6904
19.9127
20.1327
20.3505
20.566
20.7794
20.9905
21.1993
21.406
21.6105
21.8129
22.013
22.2111
22.4069
22.6007
22.7923
22.9819
23.1693
23.3547
23.538
23.7193
23.8985
24.0758
24.251
24.4242
24.5955
24.7648
24.9322
25.0976
25.2611
25.4227
25.5825
25.7404
25.8964
26.0506
26.203
26.3535
26.5023
26.6493
26.7946
26.9381
27.0798
27.2199
27.3583
27.495
27.63
27.7634
27.8952
28.0253
28.1538
28.2808
28.4062
28.53
28.6523
28.7731
28.8923
29.0101
29.1264
29.2412
29.3546
29.4665
29.5771
29.6862
29.7939
29.9003
30.0053
30.109
30.2113
30.3123
30.412
30.5104
30.6076
30.7034
30.7981
30.8914
30.9836
31.0746
31.1643
31.2529
31.3402
31.4265
31.5115
31.5954
31.6782
31.7599
31.8404
31.9199
31.9982
32.0755
32.1517
32.2269
32.301
32.374
32.446
32.517
32.587
32.656
32.7239
32.7909
32.8569
32.9219
32.9859
33.049
33.1111
33.1723
33.2326
33.2919
33.3502
33.4077
33.4642
33.5199
33.5746
33.6284
33.6814
33.7334
33.7846
33.8349
33.8844
33.933
33.9807
34.0276
34.0736
34.1188
34.1632
34.2067
34.2494
34.2913
34.3324
34.3726
34.412
34.4507
34.4885
34.5256
34.5618
34.5973
34.632
34.6659
34.699
34.7314
34.763
34.7938
34.8238
34.8531
34.8817
34.9095
34.9365
34.9628
34.9884
35.0132
35.0372
35.0606
35.0832
35.1051
35.1262
35.1466
35.1663
35.1853
35.2035
35.2211
35.2379
35.254
35.2694
35.284
35.298
35.3113
35.3238
35.3357
35.3468
35.3573
35.367
35.3761
35.3844
35.392
35.399
35.4052
35.4108
35.4157
35.4198
35.4233
35.4261
35.4282
35.4295
35.4302
-15.0838
-15.0764
-15.0614
-15.0391
-15.0093
-14.972
-14.9274
-14.8754
-14.816
-14.7492
-14.6751
-14.5937
-14.505
-14.4091
-14.3059
-14.1956
-14.0782
-13.9537
-13.8221
-13.6835
-13.538
-13.3856
-13.2263
-13.0603
-12.8875
-12.7081
-12.5221
-12.3296
-12.1306
-11.9252
-11.7136
-11.4957
-11.2718
-11.0419
-10.8061
-10.5645
-10.3174
-10.0648
-9.80703
-9.54416
-9.27643
-9.00405
-8.72724
-8.44621
-8.16117
-7.87232
-7.57985
-7.28395
-6.98478
-6.68252
-6.37732
-6.06935
-5.75874
-5.44565
-5.13023
-4.81261
-4.49293
-4.17133
-3.84794
-3.5229
-3.19634
-2.86839
-2.53918
-2.20882
-1.87745
-1.54518
-1.21214
-0.878435
-0.544187
-0.209508
0.125494
0.46071
0.796034
1.13136
1.4666
1.80164
2.1364
2.47077
2.80467
3.13802
3.47072
3.8027
4.13388
4.46418
4.79351
5.12183
5.44904
5.77508
6.0999
6.42341
6.74558
7.06632
7.38559
7.70334
8.01951
8.33404
8.6469
8.95804
9.26741
9.57497
9.88069
10.1845
10.4864
10.7864
11.0844
11.3803
11.6743
11.9661
12.2559
12.5435
12.829
13.1124
13.3936
13.6725
13.9493
14.2239
14.4962
14.7663
15.0341
15.2996
15.5629
15.8239
16.0826
16.339
16.5931
16.8449
17.0944
17.3417
17.5866
17.8292
18.0695
18.3075
18.5432
18.7766
19.0078
19.2367
19.4633
19.6876
19.9096
20.1294
20.347
20.5623
20.7754
20.9863
21.195
21.4015
21.6058
21.8079
22.0079
22.2057
22.4013
22.5949
22.7863
22.9756
23.1629
23.3481
23.5312
23.7122
23.8913
24.0683
24.2433
24.4163
24.5874
24.7565
24.9237
25.0889
25.2522
25.4136
25.5732
25.7309
25.8867
26.0407
26.1929
26.3432
26.4918
26.6386
26.7837
26.927
27.0686
27.2085
27.3467
27.4832
27.6181
27.7513
27.8829
28.0128
28.1412
28.268
28.3932
28.5169
28.639
28.7596
28.8787
28.9963
29.1124
29.2271
29.3403
29.4521
29.5625
29.6715
29.779
29.8853
29.9901
30.0936
30.1958
30.2967
30.3963
30.4945
30.5915
30.6873
30.7818
30.875
30.9671
31.0579
31.1475
31.2359
31.3232
31.4093
31.4942
31.578
31.6607
31.7422
31.8227
31.902
31.9802
32.0574
32.1335
32.2086
32.2825
32.3555
32.4274
32.4983
32.5682
32.637
32.7049
32.7718
32.8377
32.9026
32.9665
33.0295
33.0915
33.1526
33.2128
33.272
33.3303
33.3877
33.4441
33.4997
33.5543
33.6081
33.661
33.7129
33.7641
33.8143
33.8637
33.9122
33.9599
34.0067
34.0526
34.0978
34.1421
34.1855
34.2282
34.27
34.311
34.3512
34.3906
34.4292
34.4669
34.5039
34.5401
34.5756
34.6102
34.644
34.6771
34.7094
34.741
34.7717
34.8018
34.831
34.8595
34.8873
34.9143
34.9405
34.966
34.9908
35.0149
35.0382
35.0607
35.0826
35.1037
35.1241
35.1437
35.1627
35.1809
35.1984
35.2152
35.2313
35.2466
35.2613
35.2752
35.2885
35.301
35.3129
35.324
35.3344
35.3442
35.3532
35.3615
35.3691
35.3761
35.3823
35.3879
35.3927
35.3969
35.4003
35.4031
35.4052
35.4066
35.4073
-15.0342
-15.0268
-15.0121
-14.99
-14.9606
-14.9238
-14.8798
-14.8285
-14.7698
-14.704
-14.6309
-14.5505
-14.463
-14.3683
-14.2665
-14.1576
-14.0417
-13.9188
-13.7888
-13.652
-13.5083
-13.3577
-13.2004
-13.0363
-12.8656
-12.6883
-12.5045
-12.3142
-12.1175
-11.9144
-11.7051
-11.4896
-11.268
-11.0403
-10.8067
-10.5673
-10.3222
-10.0715
-9.81532
-9.55388
-9.28733
-9.01588
-8.73973
-8.45911
-8.17425
-7.88537
-7.59272
-7.2965
-6.99693
-6.6942
-6.38849
-6.07998
-5.76882
-5.45519
-5.13923
-4.82109
-4.5009
-4.1788
-3.85494
-3.52944
-3.20243
-2.87405
-2.54442
-2.21367
-1.88192
-1.5493
-1.21591
-0.881883
-0.547328
-0.212359
0.122915
0.458384
0.793946
1.12949
1.46493
1.80016
2.13508
2.46961
2.80364
3.13711
3.46991
3.80198
4.13322
4.46357
4.79295
5.12128
5.4485
5.77454
6.09934
6.42282
6.74494
7.06562
7.38482
7.70248
8.01855
8.33297
8.64571
8.95671
9.26594
9.57335
9.8789
10.1826
10.4843
10.7841
11.0818
11.3776
11.6713
11.9629
12.2524
12.5398
12.8251
13.1082
13.3891
13.6678
13.9443
14.2186
14.4907
14.7604
15.028
15.2932
15.5562
15.8169
16.0753
16.3314
16.5852
16.8367
17.0858
17.3327
17.5773
17.8196
18.0596
18.2973
18.5326
18.7657
18.9966
19.2251
19.4513
19.6753
19.897
20.1165
20.3337
20.5487
20.7615
20.972
21.1804
21.3865
21.5905
21.7923
21.9919
22.1894
22.3847
22.5779
22.769
22.958
23.1449
23.3298
23.5125
23.6933
23.872
24.0487
24.2234
24.3961
24.5668
24.7356
24.9025
25.0674
25.2304
25.3915
25.5508
25.7082
25.8637
26.0174
26.1693
26.3194
26.4677
26.6142
26.759
26.902
27.0433
27.1829
27.3208
27.4571
27.5917
27.7246
27.8559
27.9856
28.1137
28.2403
28.3652
28.4886
28.6105
28.7308
28.8497
28.9671
29.083
29.1974
29.3104
29.4219
29.5321
29.6408
29.7482
29.8542
29.9588
30.0621
30.1641
30.2647
30.3641
30.4622
30.559
30.6545
30.7488
30.8419
30.9337
31.0243
31.1137
31.202
31.2891
31.375
31.4597
31.5433
31.6258
31.7072
31.7875
31.8666
31.9447
32.0217
32.0977
32.1725
32.2464
32.3191
32.3909
32.4616
32.5314
32.6001
32.6678
32.7345
32.8003
32.8651
32.9289
32.9917
33.0536
33.1146
33.1746
33.2337
33.2918
33.3491
33.4054
33.4609
33.5154
33.569
33.6218
33.6737
33.7247
33.7748
33.8241
33.8725
33.92
33.9667
34.0126
34.0576
34.1018
34.1452
34.1878
34.2295
34.2704
34.3105
34.3498
34.3883
34.426
34.4629
34.4991
34.5344
34.569
34.6027
34.6357
34.668
34.6995
34.7302
34.7601
34.7893
34.8178
34.8454
34.8724
34.8986
34.924
34.9488
34.9728
34.996
35.0185
35.0403
35.0614
35.0817
35.1013
35.1202
35.1384
35.1559
35.1727
35.1887
35.204
35.2187
35.2326
35.2458
35.2583
35.2701
35.2812
35.2916
35.3013
35.3103
35.3187
35.3263
35.3332
35.3394
35.345
35.3498
35.354
35.3574
35.3602
35.3622
35.3636
35.3643
-14.9899
-14.9826
-14.968
-14.9462
-14.9171
-14.8807
-14.8371
-14.7863
-14.7283
-14.6631
-14.5907
-14.5112
-14.4246
-14.331
-14.2302
-14.1225
-14.0078
-13.8861
-13.7576
-13.6222
-13.48
-13.3311
-13.1754
-13.0132
-12.8443
-12.6689
-12.4871
-12.2988
-12.1042
-11.9033
-11.6962
-11.483
-11.2636
-11.0383
-10.807
-10.5699
-10.327
-10.0785
-9.82443
-9.56493
-9.30015
-9.03024
-8.75537
-8.47575
-8.19158
-7.9031
-7.61056
-7.31422
-7.01432
-6.7111
-6.40477
-6.09557
-5.78366
-5.46925
-5.1525
-4.83356
-4.51259
-4.18972
-3.8651
-3.53887
-3.21114
-2.88206
-2.55174
-2.22033
-1.88793
-1.55468
-1.22068
-0.886064
-0.55094
-0.215422
0.12038
0.456359
0.792409
1.12843
1.46431
1.79997
2.1353
2.47021
2.80462
3.13844
3.47157
3.80395
4.13549
4.46612
4.79575
5.12432
5.45177
5.77801
6.10299
6.42665
6.74892
7.06974
7.38907
7.70683
8.02299
8.3375
8.6503
8.96135
9.27062
9.57805
9.88361
10.1873
10.489
10.7887
11.0865
11.3822
11.6758
11.9674
12.2568
12.5441
12.8293
13.1123
13.3931
13.6717
13.9481
14.2222
14.4941
14.7637
15.0311
15.2962
15.559
15.8195
16.0777
16.3336
16.5872
16.8385
17.0875
17.3342
17.5786
17.8206
18.0604
18.2978
18.533
18.7659
18.9964
19.2247
19.4508
19.6745
19.896
20.1152
20.3322
20.547
20.7595
20.9698
21.1779
21.3838
21.5875
21.789
21.9884
22.1856
22.3807
22.5736
22.7645
22.9532
23.1399
23.3245
23.507
23.6875
23.866
24.0424
24.2169
24.3893
24.5598
24.7284
24.895
25.0597
25.2224
25.3833
25.5423
25.6994
25.8547
26.0082
26.1599
26.3097
26.4578
26.6041
26.7486
26.8914
27.0325
27.1719
27.3096
27.4456
27.58
27.7127
27.8438
27.9733
28.1012
28.2275
28.3523
28.4755
28.5972
28.7173
28.836
28.9531
29.0688
29.1831
29.2959
29.4072
29.5172
29.6257
29.7329
29.8387
29.9432
30.0463
30.1481
30.2486
30.3478
30.4457
30.5423
30.6377
30.7318
30.8247
30.9164
31.0068
31.0961
31.1842
31.2711
31.3569
31.4415
31.525
31.6073
31.6885
31.7687
31.8477
31.9256
32.0025
32.0783
32.153
32.2267
32.2994
32.371
32.4416
32.5112
32.5798
32.6474
32.714
32.7797
32.8443
32.908
32.9708
33.0326
33.0934
33.1533
33.2123
33.2704
33.3275
33.3838
33.4391
33.4935
33.5471
33.5997
33.6515
33.7024
33.7525
33.8016
33.85
33.8974
33.9441
33.9899
34.0348
34.0789
34.1222
34.1647
34.2063
34.2472
34.2872
34.3265
34.3649
34.4025
34.4394
34.4754
34.5107
34.5452
34.5789
34.6119
34.6441
34.6755
34.7061
34.736
34.7652
34.7936
34.8212
34.8481
34.8742
34.8997
34.9243
34.9483
34.9715
34.994
35.0157
35.0368
35.0571
35.0766
35.0955
35.1137
35.1311
35.1478
35.1638
35.1791
35.1937
35.2076
35.2208
35.2333
35.2451
35.2562
35.2666
35.2763
35.2853
35.2936
35.3012
35.3081
35.3143
35.3198
35.3247
35.3288
35.3322
35.335
35.3371
35.3385
35.3391
-14.932
-14.9248
-14.9104
-14.8888
-14.8601
-14.8242
-14.7811
-14.731
-14.6736
-14.6093
-14.5378
-14.4593
-14.3737
-14.2812
-14.1817
-14.0753
-13.9619
-13.8417
-13.7147
-13.5809
-13.4404
-13.2932
-13.1394
-12.979
-12.8121
-12.6388
-12.459
-12.2728
-12.0804
-11.8818
-11.677
-11.4661
-11.2492
-11.0263
-10.7975
-10.5629
-10.3225
-10.0765
-9.82492
-9.56786
-9.30543
-9.03776
-8.76495
-8.48717
-8.20458
-7.91738
-7.62581
-7.33009
-7.0305
-6.7273
-6.42076
-6.11114
-5.79868
-5.48361
-5.16613
-4.84644
-4.5247
-4.20107
-3.87569
-3.54871
-3.22026
-2.89048
-2.55948
-2.2274
-1.89436
-1.56049
-1.2259
-0.890709
-0.555033
-0.218987
0.117322
0.453784
0.790295
1.12675
1.46305
1.7991
2.1348
2.47007
2.8048
3.13892
3.47235
3.80499
4.13677
4.46762
4.79745
5.12621
5.45382
5.7802
6.10531
6.42907
6.75143
7.07232
7.3917
7.7095
8.02568
8.34019
8.65298
8.96401
9.27323
9.58061
9.8861
10.1897
10.4913
10.7909
11.0885
11.3841
11.6776
11.969
12.2583
12.5454
12.8304
13.1132
13.3938
13.6722
13.9484
14.2223
14.4939
14.7633
15.0304
15.2952
15.5578
15.818
16.0759
16.3316
16.5849
16.8359
17.0846
17.331
17.575
17.8168
18.0562
18.2934
18.5282
18.7608
18.991
19.219
19.4447
19.6681
19.8893
20.1082
20.3248
20.5392
20.7514
20.9614
21.1691
21.3747
21.5781
21.7793
21.9783
22.1752
22.3699
22.5625
22.7531
22.9415
23.1278
23.312
23.4942
23.6744
23.8525
24.0287
24.2028
24.3749
24.5451
24.7133
24.8796
25.044
25.2064
25.367
25.5257
25.6825
25.8375
25.9906
26.142
26.2915
26.4393
26.5853
26.7295
26.8721
27.0129
27.1519
27.2894
27.4251
27.5592
27.6916
27.8224
27.9517
28.0793
28.2053
28.3298
28.4527
28.5742
28.694
28.8124
28.9294
29.0448
29.1588
29.2713
29.3825
29.4922
29.6005
29.7074
29.813
29.9172
30.0201
30.1217
30.222
30.3209
30.4186
30.515
30.6102
30.7041
30.7968
30.8882
30.9785
31.0676
31.1555
31.2422
31.3277
31.4122
31.4954
31.5776
31.6586
31.7386
31.8174
31.8952
31.9719
32.0475
32.1221
32.1956
32.2681
32.3396
32.41
32.4795
32.5479
32.6153
32.6818
32.7473
32.8118
32.8753
32.9379
32.9996
33.0603
33.1201
33.1789
33.2368
33.2939
33.35
33.4052
33.4595
33.5129
33.5654
33.6171
33.6679
33.7178
33.7669
33.8151
33.8625
33.909
33.9547
33.9995
34.0435
34.0867
34.1291
34.1707
34.2114
34.2513
34.2905
34.3288
34.3664
34.4031
34.4391
34.4743
34.5087
34.5424
34.5752
34.6074
34.6387
34.6693
34.6991
34.7282
34.7565
34.7841
34.8109
34.837
34.8624
34.887
34.9109
34.934
34.9565
34.9782
34.9991
35.0194
35.0389
35.0578
35.0759
35.0933
35.11
35.1259
35.1412
35.1558
35.1696
35.1828
35.1953
35.207
35.2181
35.2284
35.2381
35.2471
35.2554
35.2629
35.2698
35.276
35.2816
35.2864
35.2905
35.294
35.2967
35.2988
35.3002
35.3008
-14.8758
-14.8686
-14.8544
-14.8331
-14.8046
-14.7691
-14.7265
-14.6768
-14.6201
-14.5564
-14.4857
-14.408
-14.3233
-14.2318
-14.1333
-14.028
-13.9159
-13.797
-13.6713
-13.5389
-13.3999
-13.2543
-13.1021
-12.9434
-12.7783
-12.6068
-12.4289
-12.2447
-12.0544
-11.8578
-11.6552
-11.4465
-11.2319
-11.0113
-10.7849
-10.5527
-10.3148
-10.0713
-9.82219
-9.56765
-9.30773
-9.04251
-8.7721
-8.4966
-8.21614
-7.93087
-7.64095
-7.34659
-7.048
-6.74544
-6.43919
-6.12952
-5.81674
-5.50112
-5.18293
-4.86241
-4.53977
-4.2152
-3.88887
-3.56094
-3.23155
-2.90084
-2.56894
-2.23598
-1.90208
-1.56737
-1.23197
-0.895994
-0.559556
-0.222772
0.114248
0.451397
0.788569
1.12566
1.46257
1.79921
2.13547
2.47127
2.80652
3.14113
3.47501
3.80809
4.14029
4.47153
4.80174
5.13084
5.45878
5.78547
6.11086
6.43488
6.75748
7.07859
7.39817
7.71616
8.0325
8.34715
8.66007
8.9712
9.28052
9.58797
9.89352
10.1971
10.4988
10.7984
11.096
11.3916
11.6851
11.9764
12.2657
12.5527
12.8376
13.1203
13.4008
13.6791
13.9551
14.2289
14.5004
14.7697
15.0366
15.3013
15.5636
15.8237
16.0814
16.3368
16.59
16.8408
17.0892
17.3354
17.5792
17.8208
18.06
18.2969
18.5315
18.7638
18.9938
19.2215
19.4469
19.6701
19.891
20.1096
20.326
20.5401
20.752
20.9617
21.1692
21.3744
21.5775
21.7784
21.9772
22.1738
22.3683
22.5606
22.7508
22.9389
23.125
23.309
23.4909
23.6707
23.8486
24.0244
24.1983
24.3701
24.54
24.708
24.874
25.038
25.2002
25.3605
25.5189
25.6755
25.8302
25.9831
26.1341
26.2834
26.4309
26.5767
26.7206
26.8629
27.0034
27.1423
27.2794
27.4149
27.5487
27.6809
27.8115
27.9405
28.0679
28.1937
28.3179
28.4406
28.5618
28.6814
28.7996
28.9163
29.0315
29.1453
29.2576
29.3685
29.478
29.5861
29.6928
29.7982
29.9022
30.0049
30.1063
30.2063
30.3051
30.4026
30.4988
30.5938
30.6875
30.78
30.8713
30.9613
31.0502
31.1379
31.2245
31.3099
31.3941
31.4772
31.5592
31.6401
31.7199
31.7985
31.8761
31.9527
32.0281
32.1026
32.1759
32.2483
32.3196
32.3899
32.4592
32.5275
32.5948
32.6611
32.7265
32.7908
32.8543
32.9167
32.9782
33.0388
33.0985
33.1572
33.215
33.2719
33.3279
33.383
33.4372
33.4905
33.5429
33.5945
33.6452
33.695
33.744
33.7921
33.8393
33.8857
33.9313
33.9761
34.02
34.0631
34.1054
34.1469
34.1875
34.2274
34.2665
34.3047
34.3422
34.3789
34.4148
34.4499
34.4842
34.5178
34.5506
34.5827
34.6139
34.6445
34.6742
34.7032
34.7315
34.759
34.7858
34.8118
34.8371
34.8617
34.8855
34.9086
34.931
34.9527
34.9736
34.9938
35.0133
35.0321
35.0502
35.0676
35.0842
35.1002
35.1154
35.1299
35.1438
35.1569
35.1693
35.1811
35.1921
35.2024
35.2121
35.221
35.2293
35.2369
35.2438
35.2499
35.2554
35.2603
35.2644
35.2678
35.2706
35.2726
35.274
35.2747
-14.8087
-14.8016
-14.7876
-14.7665
-14.7384
-14.7033
-14.6612
-14.6121
-14.5561
-14.4931
-14.4232
-14.3464
-14.2628
-14.1723
-14.075
-13.9709
-13.86
-13.7425
-13.6182
-13.4873
-13.3499
-13.2059
-13.0554
-12.8985
-12.7352
-12.5655
-12.3896
-12.2075
-12.0191
-11.8247
-11.6243
-11.4178
-11.2055
-10.9873
-10.7633
-10.5335
-10.2981
-10.0572
-9.81068
-9.55876
-9.30148
-9.03891
-8.77115
-8.49828
-8.22039
-7.93759
-7.65
-7.35777
-7.06104
-6.76003
-6.45497
-6.1461
-5.83373
-5.51815
-5.1997
-4.87866