/*--------------------------------*- C++ -*----------------------------------*\
| =========                 |                                                 |
| \\      /  F ield         | OpenFOAM: The Open Source CFD Toolbox           |
|  \\    /   O peration     | Version:  2212                                  |
|   \\  /    A nd           | Website:  www.openfoam.com                      |
|    \\/     M anipulation  |                                                 |
\*---------------------------------------------------------------------------*/
FoamFile
{
    version     2.0;
    format      ascii;
    arch        "LSB;label=32;scalar=64";
    class       volScalarField;
    location    "490";
    object      p_rgh;
}
// * * * * * * * * * * * * * * * * * * * * * * * * * * * * * * * * * * * * * //

dimensions      [1 -1 -2 0 0 0 0];

internalField   nonuniform List<scalar> 
204800
(
38.7269
38.7154
38.6929
38.6597
38.6156
38.5613
38.4969
38.4231
38.34
38.2485
38.1488
38.0416
37.9272
37.8061
37.6787
37.5452
37.406
37.2614
37.1116
36.957
36.7978
36.6343
36.4666
36.295
36.1198
35.9411
35.7592
35.5744
35.3867
35.1965
35.004
34.8093
34.6127
34.4143
34.2143
34.013
33.8105
33.607
33.4027
33.1978
32.9923
32.7866
32.5807
32.3748
32.1692
31.9638
31.7589
31.5546
31.351
31.1484
30.9468
30.7463
30.5471
30.3492
30.1529
29.9582
29.7653
29.5741
29.3849
29.1977
29.0126
28.8298
28.6492
28.471
28.2952
28.122
27.9513
27.7833
27.618
27.4555
27.2958
27.139
26.9852
26.8343
26.6864
26.5415
26.3997
26.2611
26.1256
25.9932
25.8641
25.7381
25.6154
25.4959
25.3796
25.2666
25.1569
25.0504
24.9472
24.8473
24.7506
24.6571
24.5669
24.4799
24.3962
24.3156
24.2382
24.164
24.0929
24.0249
23.9601
23.8983
23.8395
23.7838
23.731
23.6812
23.6343
23.5904
23.5492
23.5109
23.4754
23.4426
23.4126
23.3852
23.3604
23.3382
23.3186
23.3015
23.2868
23.2746
23.2648
23.2573
23.2521
23.2491
23.2484
23.2498
23.2533
23.259
23.2666
23.2763
23.2879
23.3014
23.3168
23.334
23.3529
23.3736
23.396
23.42
23.4456
23.4728
23.5014
23.5316
23.5632
23.5962
23.6305
23.6662
23.7031
23.7413
23.7806
23.8211
23.8627
23.9054
23.9492
23.9939
24.0396
24.0863
24.1338
24.1822
24.2315
24.2815
24.3323
24.3838
24.4361
24.489
24.5425
24.5966
24.6514
24.7066
24.7624
24.8187
24.8754
24.9326
24.9902
25.0481
25.1064
25.1651
25.2241
25.2833
25.3428
25.4026
25.4625
25.5227
25.583
25.6435
25.7041
25.7648
25.8256
25.8864
25.9474
26.0083
26.0693
26.1302
26.1912
26.2521
26.313
26.3737
26.4344
26.4951
26.5555
26.6159
26.6761
26.7362
26.7961
26.8558
26.9153
26.9746
27.0337
27.0926
27.1512
27.2096
27.2677
27.3255
27.383
27.4403
27.4972
27.5538
27.6101
27.6661
27.7217
27.777
27.8319
27.8864
27.9406
27.9944
28.0478
28.1008
28.1534
28.2056
28.2574
28.3087
28.3597
28.4102
28.4602
28.5098
28.559
28.6076
28.6559
28.7036
28.7509
28.7977
28.844
28.8899
28.9352
28.9801
29.0244
29.0683
29.1116
29.1544
29.1967
29.2385
29.2798
29.3205
29.3607
29.4004
29.4396
29.4782
29.5162
29.5538
29.5907
29.6271
29.663
29.6983
29.7331
29.7673
29.8009
29.834
29.8665
29.8984
29.9298
29.9606
29.9908
30.0204
30.0495
30.078
30.1059
30.1332
30.1599
30.1861
30.2116
30.2366
30.261
30.2848
30.308
30.3306
30.3526
30.374
30.3948
30.415
30.4346
30.4536
30.472
30.4898
30.5069
30.5235
30.5395
30.5549
30.5696
30.5838
30.5973
30.6102
30.6225
30.6342
30.6453
30.6558
30.6657
30.6749
30.6835
30.6916
30.699
30.7058
30.7119
30.7175
30.7224
30.7267
30.7304
30.7335
30.736
30.7379
30.7391
30.7397
38.6874
38.6744
38.6489
38.6116
38.5631
38.5043
38.4358
38.3583
38.2724
38.1786
38.0772
37.9688
37.8535
37.7319
37.604
37.4704
37.3311
37.1865
37.0369
36.8824
36.7234
36.56
36.3925
36.2212
36.0462
35.8678
35.6862
35.5017
35.3143
35.1245
34.9322
34.7379
34.5416
34.3435
34.1439
33.943
33.7408
33.5377
33.3337
33.1291
32.9241
32.7187
32.5132
32.3077
32.1024
31.8974
31.6929
31.4889
31.2858
31.0835
30.8822
30.6821
30.4833
30.2859
30.0899
29.8956
29.703
29.5122
29.3233
29.1365
28.9518
28.7693
28.589
28.4112
28.2358
28.0629
27.8925
27.7249
27.5599
27.3977
27.2383
27.0818
26.9283
26.7777
26.6301
26.4855
26.344
26.2056
26.0704
25.9383
25.8094
25.6838
25.5613
25.442
25.326
25.2133
25.1038
24.9975
24.8945
24.7948
24.6983
24.6051
24.515
24.4283
24.3447
24.2643
24.1871
24.113
24.0421
23.9743
23.9096
23.8479
23.7893
23.7337
23.6811
23.6314
23.5847
23.5408
23.4998
23.4616
23.4261
23.3935
23.3635
23.3362
23.3115
23.2894
23.2698
23.2528
23.2382
23.226
23.2162
23.2088
23.2036
23.2007
23.2
23.2014
23.205
23.2107
23.2183
23.228
23.2396
23.2531
23.2685
23.2857
23.3046
23.3253
23.3476
23.3716
23.3972
23.4244
23.453
23.4832
23.5147
23.5477
23.582
23.6176
23.6545
23.6926
23.7319
23.7723
23.8139
23.8565
23.9002
23.9449
23.9906
24.0371
24.0846
24.133
24.1821
24.2321
24.2828
24.3343
24.3864
24.4392
24.4927
24.5468
24.6014
24.6566
24.7123
24.7684
24.8251
24.8822
24.9397
24.9975
25.0558
25.1143
25.1732
25.2323
25.2917
25.3514
25.4113
25.4713
25.5315
25.5919
25.6524
25.713
25.7737
25.8345
25.8953
25.9561
26.017
26.0779
26.1387
26.1995
26.2603
26.321
26.3816
26.4421
26.5025
26.5627
26.6228
26.6828
26.7426
26.8022
26.8616
26.9208
26.9798
27.0386
27.0971
27.1553
27.2133
27.2711
27.3285
27.3856
27.4425
27.499
27.5552
27.6111
27.6666
27.7218
27.7766
27.831
27.8851
27.9388
27.9921
28.045
28.0975
28.1496
28.2013
28.2526
28.3034
28.3538
28.4038
28.4533
28.5023
28.5509
28.5991
28.6467
28.6939
28.7407
28.7869
28.8326
28.8779
28.9227
28.9669
29.0107
29.054
29.0967
29.1389
29.1807
29.2219
29.2625
29.3027
29.3423
29.3813
29.4199
29.4579
29.4953
29.5322
29.5686
29.6044
29.6396
29.6743
29.7085
29.742
29.775
29.8075
29.8394
29.8707
29.9014
29.9316
29.9612
29.9902
30.0186
30.0464
30.0737
30.1004
30.1265
30.152
30.1769
30.2013
30.225
30.2481
30.2707
30.2927
30.314
30.3348
30.3549
30.3745
30.3935
30.4118
30.4296
30.4468
30.4633
30.4792
30.4946
30.5093
30.5234
30.5369
30.5498
30.5621
30.5738
30.5849
30.5953
30.6052
30.6144
30.623
30.631
30.6384
30.6452
30.6514
30.6569
30.6618
30.6661
30.6698
30.6729
30.6754
30.6772
30.6785
30.6791
38.6697
38.657
38.6317
38.5946
38.5463
38.4877
38.4193
38.342
38.2561
38.1622
38.0607
37.9522
37.8368
37.7149
37.5869
37.4531
37.3137
37.1689
37.0191
36.8645
36.7054
36.5419
36.3743
36.2029
36.0278
35.8493
35.6677
35.483
35.2957
35.1057
34.9135
34.7191
34.5227
34.3246
34.125
33.924
33.7219
33.5187
33.3148
33.1102
32.9051
32.6998
32.4943
32.2888
32.0835
31.8785
31.674
31.4701
31.267
31.0647
30.8635
30.6634
30.4646
30.2672
30.0713
29.877
29.6845
29.4937
29.3049
29.1181
28.9335
28.751
28.5708
28.393
28.2177
28.0448
27.8746
27.707
27.5421
27.3799
27.2206
27.0642
26.9107
26.7602
26.6126
26.4681
26.3267
26.1884
26.0533
25.9213
25.7924
25.6668
25.5444
25.4253
25.3093
25.1967
25.0872
24.9811
24.8782
24.7785
24.6821
24.5889
24.499
24.4123
24.3288
24.2485
24.1713
24.0973
24.0265
23.9588
23.8941
23.8326
23.774
23.7185
23.666
23.6164
23.5697
23.5259
23.485
23.4468
23.4115
23.3789
23.349
23.3217
23.2971
23.2751
23.2556
23.2386
23.2241
23.212
23.2023
23.1949
23.1898
23.187
23.1863
23.1879
23.1915
23.1972
23.205
23.2147
23.2264
23.2399
23.2554
23.2726
23.2916
23.3123
23.3347
23.3588
23.3844
23.4117
23.4404
23.4706
23.5022
23.5352
23.5695
23.6052
23.6421
23.6803
23.7196
23.7601
23.8017
23.8444
23.8881
23.9328
23.9785
24.0252
24.0727
24.1211
24.1703
24.2203
24.271
24.3225
24.3747
24.4275
24.481
24.5351
24.5898
24.645
24.7007
24.7569
24.8136
24.8707
24.9282
24.9861
25.0444
25.103
25.1619
25.221
25.2805
25.3401
25.4
25.4601
25.5203
25.5807
25.6412
25.7018
25.7626
25.8233
25.8842
25.945
26.0059
26.0668
26.1276
26.1885
26.2492
26.3099
26.3705
26.431
26.4914
26.5517
26.6118
26.6718
26.7316
26.7912
26.8506
26.9099
26.9689
27.0276
27.0861
27.1444
27.2024
27.2601
27.3176
27.3747
27.4315
27.4881
27.5443
27.6001
27.6557
27.7108
27.7657
27.8201
27.8742
27.9279
27.9812
28.0341
28.0866
28.1387
28.1904
28.2417
28.2925
28.3429
28.3928
28.4423
28.4914
28.54
28.5881
28.6358
28.683
28.7297
28.7759
28.8217
28.867
28.9117
28.956
28.9997
29.043
29.0857
29.128
29.1697
29.2109
29.2515
29.2917
29.3313
29.3703
29.4089
29.4469
29.4843
29.5212
29.5575
29.5933
29.6286
29.6633
29.6974
29.731
29.764
29.7964
29.8283
29.8596
29.8903
29.9205
29.9501
29.9791
30.0075
30.0353
30.0626
30.0893
30.1154
30.1409
30.1658
30.1901
30.2139
30.237
30.2596
30.2815
30.3029
30.3236
30.3438
30.3634
30.3823
30.4007
30.4184
30.4356
30.4521
30.4681
30.4834
30.4981
30.5122
30.5258
30.5387
30.5509
30.5626
30.5737
30.5841
30.594
30.6032
30.6118
30.6198
30.6272
30.634
30.6401
30.6457
30.6506
30.6549
30.6586
30.6617
30.6642
30.666
30.6673
30.6679
38.622
38.6088
38.5823
38.5437
38.4936
38.433
38.3627
38.2834
38.1958
38.1005
37.9977
37.8881
37.7718
37.6493
37.5207
37.3865
37.2467
37.1017
36.9517
36.797
36.6378
36.4742
36.3067
36.1353
35.9602
35.7818
35.6003
35.4157
35.2285
35.0387
34.8466
34.6523
34.4562
34.2583
34.0589
33.8581
33.6561
33.4532
33.2495
33.0451
32.8403
32.6352
32.4299
32.2247
32.0196
31.8149
31.6106
31.407
31.2042
31.0022
30.8012
30.6014
30.4029
30.2058
30.0101
29.8161
29.6239
29.4334
29.2449
29.0584
28.874
28.6918
28.5119
28.3344
28.1593
27.9868
27.8168
27.6495
27.4848
27.323
27.1639
27.0078
26.8546
26.7043
26.557
26.4128
26.2716
26.1336
25.9987
25.867
25.7384
25.613
25.4909
25.3719
25.2563
25.1438
25.0346
24.9287
24.826
24.7266
24.6304
24.5374
24.4477
24.3612
24.2779
24.1978
24.1209
24.0471
23.9764
23.9089
23.8444
23.7831
23.7247
23.6693
23.617
23.5675
23.521
23.4774
23.4366
23.3986
23.3634
23.331
23.3012
23.2741
23.2496
23.2277
23.2084
23.1915
23.1771
23.1651
23.1555
23.1482
23.1432
23.1405
23.1399
23.1415
23.1453
23.1511
23.1589
23.1687
23.1805
23.1941
23.2096
23.2269
23.246
23.2668
23.2892
23.3133
23.339
23.3663
23.395
23.4253
23.4569
23.4899
23.5243
23.56
23.597
23.6351
23.6745
23.715
23.7566
23.7993
23.8431
23.8878
23.9335
23.9801
24.0276
24.076
24.1252
24.1752
24.226
24.2775
24.3296
24.3825
24.4359
24.49
24.5446
24.5998
24.6555
24.7117
24.7684
24.8255
24.8829
24.9408
24.999
25.0576
25.1164
25.1756
25.235
25.2946
25.3544
25.4145
25.4747
25.535
25.5955
25.6561
25.7167
25.7775
25.8382
25.8991
25.9599
26.0207
26.0815
26.1423
26.203
26.2636
26.3242
26.3846
26.445
26.5052
26.5653
26.6252
26.6849
26.7445
26.8038
26.863
26.9219
26.9806
27.0391
27.0973
27.1553
27.2129
27.2703
27.3274
27.3842
27.4406
27.4968
27.5526
27.608
27.6632
27.7179
27.7723
27.8263
27.88
27.9332
27.9861
28.0385
28.0905
28.1422
28.1934
28.2441
28.2945
28.3444
28.3938
28.4428
28.4914
28.5394
28.5871
28.6342
28.6809
28.727
28.7727
28.8179
28.8626
28.9069
28.9506
28.9938
29.0364
29.0786
29.1203
29.1614
29.202
29.2421
29.2817
29.3207
29.3592
29.3971
29.4345
29.4714
29.5077
29.5434
29.5786
29.6133
29.6473
29.6809
29.7138
29.7462
29.7781
29.8093
29.84
29.8701
29.8997
29.9286
29.957
29.9848
30.0121
30.0387
30.0648
30.0902
30.1151
30.1394
30.1631
30.1862
30.2088
30.2307
30.252
30.2728
30.2929
30.3124
30.3314
30.3497
30.3674
30.3846
30.4011
30.417
30.4323
30.447
30.4611
30.4746
30.4875
30.4998
30.5114
30.5225
30.5329
30.5427
30.552
30.5606
30.5686
30.5759
30.5827
30.5888
30.5944
30.5993
30.6036
30.6073
30.6104
30.6128
30.6147
30.6159
30.6165
38.5913
38.5783
38.5522
38.5141
38.4645
38.4043
38.3343
38.2553
38.1678
38.0724
37.9696
37.8597
37.7432
37.6204
37.4915
37.3569
37.2169
37.0716
36.9213
36.7663
36.6068
36.4431
36.2753
36.1036
35.9284
35.7499
35.5681
35.3835
35.1961
35.0062
34.8139
34.6196
34.4234
34.2254
34.0259
33.825
33.623
33.4201
33.2163
33.0119
32.8071
32.6019
32.3967
32.1914
31.9864
31.7817
31.5774
31.3738
31.171
30.9691
30.7681
30.5684
30.3699
30.1728
29.9772
29.7833
29.5911
29.4007
29.2123
29.0258
28.8415
28.6594
28.4796
28.3022
28.1272
27.9547
27.7848
27.6176
27.4531
27.2914
27.1324
26.9764
26.8233
26.6731
26.526
26.3819
26.2408
26.1029
25.9681
25.8365
25.7081
25.5829
25.4608
25.3421
25.2265
25.1142
25.0051
24.8994
24.7968
24.6975
24.6015
24.5087
24.4191
24.3327
24.2496
24.1696
24.0928
24.0192
23.9487
23.8813
23.817
23.7558
23.6976
23.6424
23.5901
23.5409
23.4945
23.451
23.4104
23.3725
23.3375
23.3052
23.2755
23.2486
23.2242
23.2025
23.1833
23.1665
23.1523
23.1404
23.131
23.1238
23.119
23.1163
23.1159
23.1177
23.1215
23.1275
23.1354
23.1454
23.1572
23.171
23.1866
23.204
23.2232
23.2441
23.2667
23.2909
23.3167
23.3441
23.373
23.4033
23.4351
23.4682
23.5027
23.5385
23.5755
23.6138
23.6533
23.6939
23.7356
23.7784
23.8222
23.867
23.9128
23.9595
24.0071
24.0556
24.1049
24.1549
24.2058
24.2573
24.3096
24.3625
24.416
24.4702
24.5249
24.5801
24.6359
24.6922
24.7489
24.806
24.8636
24.9215
24.9798
25.0384
25.0973
25.1565
25.2159
25.2756
25.3355
25.3955
25.4558
25.5162
25.5767
25.6373
25.698
25.7588
25.8196
25.8805
25.9413
26.0022
26.063
26.1238
26.1846
26.2452
26.3058
26.3663
26.4267
26.4869
26.547
26.6069
26.6667
26.7263
26.7857
26.8448
26.9038
26.9625
27.021
27.0792
27.1372
27.1949
27.2523
27.3094
27.3662
27.4226
27.4788
27.5346
27.5901
27.6452
27.7
27.7544
27.8084
27.862
27.9153
27.9682
28.0206
28.0727
28.1243
28.1755
28.2263
28.2766
28.3265
28.376
28.425
28.4735
28.5216
28.5692
28.6163
28.663
28.7092
28.7549
28.8001
28.8448
28.889
28.9327
28.9759
29.0186
29.0608
29.1024
29.1436
29.1842
29.2242
29.2638
29.3028
29.3413
29.3792
29.4166
29.4535
29.4898
29.5255
29.5607
29.5954
29.6294
29.663
29.6959
29.7283
29.7601
29.7914
29.8221
29.8522
29.8817
29.9107
29.9391
29.9669
29.9941
30.0207
30.0468
30.0723
30.0972
30.1214
30.1451
30.1683
30.1908
30.2127
30.234
30.2547
30.2749
30.2944
30.3133
30.3317
30.3494
30.3665
30.383
30.399
30.4143
30.429
30.4431
30.4566
30.4694
30.4817
30.4934
30.5044
30.5148
30.5247
30.5339
30.5425
30.5505
30.5579
30.5646
30.5708
30.5763
30.5812
30.5855
30.5892
30.5923
30.5948
30.5966
30.5978
30.5985
38.5387
38.5255
38.4992
38.4606
38.4104
38.3495
38.2787
38.1988
38.1103
38.014
37.9103
37.7996
37.6824
37.5589
37.4294
37.2942
37.1537
37.008
36.8574
36.702
36.5423
36.3783
36.2103
36.0385
35.8632
35.6845
35.5027
35.318
35.1306
34.9406
34.7484
34.5541
34.3579
34.16
33.9605
33.7598
33.5578
33.355
33.1513
32.947
32.7423
32.5373
32.3322
32.1271
31.9222
31.7176
31.5136
31.3102
31.1075
30.9057
30.705
30.5055
30.3072
30.1103
29.9149
29.7212
29.5292
29.339
29.1508
28.9646
28.7805
28.5987
28.4191
28.2419
28.0672
27.8949
27.7253
27.5583
27.394
27.2325
27.0739
26.9181
26.7652
26.6153
26.4684
26.3245
26.1838
26.0461
25.9116
25.7802
25.652
25.527
25.4053
25.2867
25.1714
25.0594
24.9506
24.845
24.7427
24.6437
24.5479
24.4553
24.366
24.2799
24.1969
24.1172
24.0407
23.9673
23.897
23.8298
23.7657
23.7047
23.6467
23.5918
23.5397
23.4907
23.4445
23.4012
23.3608
23.3232
23.2883
23.2562
23.2268
23.2
23.1759
23.1543
23.1353
23.1187
23.1046
23.093
23.0837
23.0767
23.072
23.0695
23.0693
23.0712
23.0752
23.0813
23.0894
23.0995
23.1115
23.1254
23.1411
23.1587
23.178
23.199
23.2217
23.2461
23.272
23.2995
23.3284
23.3589
23.3908
23.424
23.4586
23.4945
23.5316
23.57
23.6095
23.6502
23.692
23.7349
23.7788
23.8237
23.8695
23.9163
23.964
24.0125
24.0618
24.112
24.1628
24.2145
24.2668
24.3197
24.3733
24.4275
24.4822
24.5375
24.5933
24.6496
24.7064
24.7635
24.8211
24.879
24.9373
24.996
25.0549
25.1141
25.1736
25.2333
25.2932
25.3532
25.4135
25.4739
25.5344
25.595
25.6557
25.7165
25.7773
25.8382
25.8991
25.9599
26.0207
26.0815
26.1423
26.2029
26.2635
26.324
26.3843
26.4446
26.5046
26.5646
26.6243
26.6839
26.7432
26.8024
26.8613
26.92
26.9785
27.0367
27.0946
27.1523
27.2097
27.2667
27.3235
27.38
27.4361
27.4919
27.5473
27.6024
27.6572
27.7115
27.7655
27.8191
27.8724
27.9252
27.9776
28.0296
28.0812
28.1324
28.1831
28.2335
28.2833
28.3327
28.3817
28.4302
28.4783
28.5259
28.573
28.6196
28.6657
28.7114
28.7566
28.8012
28.8454
28.8891
28.9323
28.9749
29.0171
29.0587
29.0998
29.1404
29.1804
29.2199
29.2589
29.2974
29.3353
29.3726
29.4095
29.4457
29.4815
29.5166
29.5512
29.5853
29.6188
29.6517
29.6841
29.7159
29.7471
29.7778
29.8078
29.8374
29.8663
29.8947
29.9224
29.9496
29.9763
30.0023
30.0277
30.0526
30.0769
30.1005
30.1236
30.1461
30.168
30.1893
30.21
30.2302
30.2497
30.2686
30.2869
30.3046
30.3217
30.3382
30.3541
30.3694
30.3841
30.3982
30.4117
30.4245
30.4368
30.4484
30.4595
30.4699
30.4797
30.4889
30.4975
30.5055
30.5129
30.5196
30.5258
30.5313
30.5362
30.5405
30.5442
30.5473
30.5497
30.5516
30.5528
30.5534
38.4982
38.4853
38.4593
38.4213
38.3716
38.3113
38.2409
38.1612
38.0729
37.9767
37.8728
37.762
37.6444
37.5205
37.3907
37.2551
37.1141
36.968
36.817
36.6613
36.5011
36.3368
36.1685
35.9964
35.8208
35.6418
35.4598
35.2748
35.0872
34.8971
34.7046
34.5102
34.3138
34.1157
33.9162
33.7153
33.5133
33.3103
33.1065
32.9022
32.6974
32.4924
32.2872
32.0821
31.8772
31.6726
31.4685
31.2651
31.0625
30.8607
30.66
30.4605
30.2623
30.0654
29.8701
29.6765
29.4845
29.2945
29.1063
28.9202
28.7362
28.5545
28.375
28.1979
28.0233
27.8511
27.6816
27.5148
27.3506
27.1893
27.0307
26.8751
26.7224
26.5726
26.4259
26.2822
26.1416
26.0041
25.8697
25.7385
25.6105
25.4857
25.3641
25.2458
25.1307
25.0188
24.9102
24.8048
24.7027
24.6039
24.5083
24.4159
24.3268
24.2409
24.1582
24.0786
24.0023
23.9291
23.859
23.7921
23.7282
23.6674
23.6096
23.5549
23.5031
23.4542
23.4083
23.3652
23.325
23.2876
23.2529
23.221
23.1918
23.1653
23.1413
23.1199
23.1011
23.0848
23.0709
23.0594
23.0503
23.0436
23.0391
23.0368
23.0368
23.0389
23.0431
23.0494
23.0577
23.0679
23.0801
23.0942
23.1101
23.1279
23.1474
23.1686
23.1915
23.216
23.2421
23.2697
23.2989
23.3295
23.3615
23.3949
23.4296
23.4657
23.503
23.5415
23.5812
23.622
23.664
23.707
23.751
23.7961
23.8421
23.889
23.9368
23.9854
24.0349
24.0851
24.1362
24.1879
24.2403
24.2934
24.3471
24.4014
24.4562
24.5116
24.5675
24.6239
24.6808
24.738
24.7957
24.8537
24.9121
24.9708
25.0299
25.0891
25.1487
25.2085
25.2684
25.3286
25.3889
25.4494
25.51
25.5707
25.6315
25.6923
25.7532
25.8141
25.875
25.936
25.9969
26.0577
26.1185
26.1792
26.2398
26.3004
26.3608
26.421
26.4812
26.5411
26.6009
26.6605
26.7199
26.7791
26.8381
26.8968
26.9553
27.0136
27.0715
27.1292
27.1866
27.2437
27.3005
27.357
27.4132
27.469
27.5245
27.5796
27.6343
27.6887
27.7427
27.7964
27.8496
27.9025
27.9549
28.0069
28.0586
28.1097
28.1605
28.2108
28.2607
28.3101
28.3591
28.4076
28.4557
28.5033
28.5504
28.597
28.6432
28.6889
28.7341
28.7787
28.8229
28.8666
28.9098
28.9524
28.9946
29.0362
29.0773
29.1179
29.1579
29.1975
29.2365
29.2749
29.3128
29.3502
29.387
29.4233
29.459
29.4942
29.5288
29.5628
29.5963
29.6292
29.6616
29.6934
29.7246
29.7553
29.7854
29.8149
29.8438
29.8722
29.9
29.9272
29.9538
29.9798
30.0052
30.0301
30.0544
30.078
30.1011
30.1236
30.1455
30.1668
30.1875
30.2076
30.2272
30.2461
30.2644
30.2821
30.2992
30.3157
30.3316
30.3469
30.3616
30.3756
30.3891
30.402
30.4142
30.4259
30.4369
30.4474
30.4572
30.4664
30.475
30.4829
30.4903
30.4971
30.5032
30.5087
30.5137
30.518
30.5216
30.5247
30.5272
30.529
30.5303
30.5309
38.442
38.4291
38.4032
38.3652
38.3154
38.255
38.1843
38.1043
38.0155
37.9187
37.8142
37.7027
37.5845
37.46
37.3295
37.1934
37.0518
36.9052
36.7536
36.5975
36.437
36.2722
36.1036
35.9312
35.7553
35.5761
35.3938
35.2087
35.0209
34.8306
34.6381
34.4435
34.247
34.0489
33.8493
33.6484
33.4463
33.2433
33.0396
32.8353
32.6305
32.4255
32.2204
32.0153
31.8105
31.606
31.402
31.1987
30.9962
30.7946
30.594
30.3946
30.1965
29.9998
29.8047
29.6111
29.4194
29.2295
29.0415
28.8556
28.6718
28.4902
28.3109
28.1341
27.9596
27.7877
27.6184
27.4518
27.2879
27.1268
26.9685
26.813
26.6606
26.5111
26.3646
26.2211
26.0808
25.9435
25.8094
25.6785
25.5507
25.4262
25.3049
25.1868
25.0719
24.9603
24.852
24.7469
24.6451
24.5465
24.4512
24.3591
24.2702
24.1846
24.1021
24.0229
23.9468
23.8739
23.8041
23.7374
23.6738
23.6133
23.5558
23.5013
23.4498
23.4012
23.3555
23.3127
23.2727
23.2356
23.2012
23.1695
23.1406
23.1142
23.0906
23.0694
23.0509
23.0348
23.0211
23.0099
23.001
22.9945
22.9902
22.9882
22.9884
22.9907
22.9951
23.0016
23.0101
23.0206
23.033
23.0473
23.0634
23.0814
23.1011
23.1225
23.1455
23.1702
23.1965
23.2243
23.2537
23.2844
23.3166
23.3502
23.3851
23.4213
23.4588
23.4974
23.5373
23.5783
23.6204
23.6635
23.7077
23.7529
23.799
23.846
23.8939
23.9427
23.9923
24.0427
24.0938
24.1456
24.1982
24.2513
24.3051
24.3595
24.4145
24.47
24.526
24.5825
24.6394
24.6967
24.7545
24.8126
24.8711
24.9299
24.989
25.0483
25.1079
25.1678
25.2278
25.288
25.3484
25.4089
25.4696
25.5303
25.5912
25.652
25.713
25.7739
25.8349
25.8959
25.9568
26.0177
26.0785
26.1392
26.1999
26.2604
26.3209
26.3812
26.4413
26.5013
26.5611
26.6207
26.6802
26.7394
26.7984
26.8571
26.9156
26.9739
27.0319
27.0896
27.147
27.2041
27.2609
27.3174
27.3735
27.4293
27.4848
27.5399
27.5947
27.6491
27.7031
27.7567
27.81
27.8628
27.9153
27.9673
28.0189
28.0701
28.1208
28.1711
28.221
28.2704
28.3194
28.3679
28.416
28.4635
28.5106
28.5573
28.6034
28.6491
28.6942
28.7389
28.7831
28.8267
28.8699
28.9125
28.9547
28.9963
29.0374
29.0779
29.118
29.1575
29.1965
29.2349
29.2728
29.3101
29.3469
29.3832
29.4189
29.4541
29.4886
29.5227
29.5562
29.5891
29.6214
29.6532
29.6844
29.7151
29.7451
29.7746
29.8036
29.8319
29.8597
29.8868
29.9134
29.9395
29.9649
29.9897
30.014
30.0376
30.0607
30.0832
30.1051
30.1264
30.1471
30.1672
30.1867
30.2056
30.2239
30.2416
30.2587
30.2752
30.291
30.3063
30.321
30.3351
30.3485
30.3614
30.3736
30.3853
30.3963
30.4067
30.4165
30.4257
30.4343
30.4423
30.4497
30.4564
30.4626
30.4681
30.473
30.4773
30.481
30.4841
30.4865
30.4884
30.4896
30.4902
38.394
38.3813
38.3558
38.3182
38.269
38.209
38.1387
38.059
37.9704
37.8736
37.769
37.6572
37.5387
37.4138
37.2828
37.1462
37.0042
36.857
36.705
36.5483
36.3873
36.2222
36.0531
35.8803
35.704
35.5244
35.3418
35.1564
34.9683
34.7777
34.5849
34.3901
34.1934
33.995
33.7952
33.5941
33.3919
33.1888
32.985
32.7805
32.5756
32.3705
32.1654
31.9602
31.7553
31.5508
31.3468
31.1435
30.9409
30.7393
30.5387
30.3394
30.1413
29.9446
29.7495
29.5561
29.3644
29.1745
28.9867
28.8008
28.6171
28.4357
28.2565
28.0797
27.9054
27.7337
27.5645
27.398
27.2343
27.0733
26.9152
26.7599
26.6076
26.4583
26.312
26.1687
26.0286
25.8915
25.7576
25.6269
25.4994
25.3751
25.254
25.1361
25.0215
24.9101
24.802
24.6972
24.5956
24.4973
24.4022
24.3104
24.2218
24.1364
24.0542
23.9752
23.8994
23.8268
23.7572
23.6908
23.6275
23.5672
23.51
23.4558
23.4045
23.3562
23.3108
23.2683
23.2286
23.1917
23.1576
23.1262
23.0975
23.0715
23.0481
23.0272
23.0089
22.9931
22.9797
22.9688
22.9602
22.9539
22.9499
22.9482
22.9486
22.9512
22.9559
22.9626
22.9714
22.9821
22.9948
23.0093
23.0257
23.0439
23.0638
23.0854
23.1088
23.1337
23.1602
23.1882
23.2178
23.2488
23.2812
23.315
23.3501
23.3865
23.4242
23.4631
23.5031
23.5443
23.5866
23.63
23.6743
23.7197
23.766
23.8132
23.8613
23.9103
23.96
24.0106
24.0619
24.1139
24.1666
24.2199
24.2739
24.3284
24.3835
24.4392
24.4953
24.5519
24.609
24.6665
24.7244
24.7826
24.8412
24.9002
24.9594
25.0188
25.0786
25.1385
25.1987
25.259
25.3195
25.3801
25.4409
25.5018
25.5627
25.6237
25.6847
25.7457
25.8068
25.8678
25.9289
25.9898
26.0507
26.1116
26.1723
26.2329
26.2934
26.3538
26.414
26.4741
26.534
26.5936
26.6531
26.7124
26.7715
26.8303
26.8888
26.9471
27.0052
27.0629
27.1204
27.1775
27.2344
27.2909
27.3471
27.403
27.4585
27.5136
27.5684
27.6229
27.6769
27.7306
27.7839
27.8367
27.8892
27.9413
27.9929
28.0441
28.0949
28.1452
28.1951
28.2446
28.2936
28.3421
28.3902
28.4378
28.4849
28.5315
28.5777
28.6234
28.6685
28.7132
28.7574
28.8011
28.8443
28.8869
28.9291
28.9707
29.0118
29.0524
29.0924
29.1319
29.1709
29.2094
29.2473
29.2846
29.3214
29.3577
29.3934
29.4286
29.4632
29.4972
29.5307
29.5636
29.596
29.6277
29.659
29.6896
29.7197
29.7492
29.7781
29.8064
29.8342
29.8614
29.888
29.914
29.9394
29.9643
29.9885
30.0122
30.0353
30.0578
30.0796
30.1009
30.1216
30.1417
30.1612
30.1801
30.1984
30.2161
30.2332
30.2497
30.2656
30.2809
30.2956
30.3096
30.3231
30.336
30.3482
30.3598
30.3709
30.3813
30.3911
30.4003
30.4089
30.4169
30.4242
30.431
30.4371
30.4426
30.4475
30.4518
30.4555
30.4586
30.4611
30.4629
30.4641
30.4647
38.3346
38.3219
38.2966
38.2592
38.2101
38.1502
38.0799
38.0001
37.9112
37.8141
37.7091
37.5968
37.4777
37.3521
37.2206
37.0833
36.9407
36.7929
36.6403
36.4831
36.3216
36.1559
35.9864
35.8132
35.6365
35.4566
35.2736
35.0879
34.8995
34.7087
34.5156
34.3206
34.1237
33.9252
33.7252
33.524
33.3217
33.1184
32.9145
32.71
32.5051
32.2999
32.0947
31.8896
31.6847
31.4802
31.2762
31.0729
30.8704
30.6688
30.4683
30.269
30.071
29.8745
29.6795
29.4861
29.2946
29.1049
28.9171
28.7314
28.5479
28.3666
28.1876
28.011
27.8369
27.6654
27.4964
27.3301
27.1666
27.0058
26.8479
26.6929
26.5408
26.3918
26.2457
26.1027
25.9628
25.826
25.6924
25.562
25.4347
25.3107
25.1898
25.0723
24.958
24.8469
24.7391
24.6345
24.5333
24.4352
24.3405
24.2489
24.1606
24.0756
23.9937
23.915
23.8395
23.7672
23.698
23.6319
23.5689
23.509
23.452
23.3981
23.3472
23.2992
23.2541
23.2119
23.1725
23.136
23.1022
23.0711
23.0428
23.017
22.9939
22.9734
22.9554
22.9399
22.9268
22.9162
22.9079
22.9019
22.8982
22.8967
22.8974
22.9003
22.9053
22.9123
22.9213
22.9323
22.9453
22.9601
22.9767
22.9952
23.0154
23.0373
23.0608
23.086
23.1128
23.1411
23.1709
23.2021
23.2348
23.2688
23.3041
23.3408
23.3787
23.4178
23.458
23.4994
23.5419
23.5855
23.63
23.6756
23.7221
23.7695
23.8178
23.8669
23.9169
23.9676
24.0191
24.0712
24.1241
24.1776
24.2317
24.2864
24.3417
24.3975
24.4537
24.5105
24.5677
24.6253
24.6834
24.7417
24.8005
24.8595
24.9188
24.9784
25.0383
25.0983
25.1586
25.219
25.2796
25.3404
25.4012
25.4622
25.5232
25.5843
25.6454
25.7065
25.7677
25.8288
25.8899
25.9509
26.0119
26.0728
26.1336
26.1943
26.2549
26.3153
26.3756
26.4357
26.4956
26.5554
26.6149
26.6742
26.7333
26.7922
26.8508
26.9091
26.9672
27.025
27.0825
27.1397
27.1965
27.2531
27.3093
27.3652
27.4208
27.476
27.5308
27.5852
27.6393
27.693
27.7463
27.7992
27.8517
27.9038
27.9554
28.0066
28.0574
28.1078
28.1577
28.2071
28.2561
28.3047
28.3528
28.4004
28.4475
28.4942
28.5403
28.586
28.6312
28.6759
28.7201
28.7638
28.8069
28.8496
28.8917
28.9334
28.9745
29.015
29.0551
29.0946
29.1336
29.172
29.2099
29.2473
29.2841
29.3203
29.356
29.3912
29.4258
29.4598
29.4933
29.5262
29.5586
29.5904
29.6216
29.6522
29.6823
29.7118
29.7407
29.769
29.7968
29.824
29.8506
29.8766
29.902
29.9268
29.9511
29.9747
29.9978
30.0203
30.0422
30.0634
30.0841
30.1042
30.1237
30.1426
30.1609
30.1786
30.1957
30.2122
30.2281
30.2433
30.258
30.2721
30.2855
30.2984
30.3106
30.3223
30.3333
30.3437
30.3535
30.3627
30.3713
30.3793
30.3866
30.3934
30.3995
30.405
30.4099
30.4142
30.4179
30.421
30.4235
30.4253
30.4265
30.4271
38.2802
38.2678
38.2427
38.2058
38.1571
38.0976
38.0277
37.9481
37.8593
37.7621
37.6569
37.5444
37.4249
37.2989
37.1669
37.0291
36.8859
36.7375
36.5844
36.4266
36.2645
36.0983
35.9283
35.7545
35.5774
35.397
35.2136
35.0275
34.8387
34.6475
34.4541
34.2588
34.0616
33.8628
33.6626
33.4611
33.2586
33.0551
32.851
32.6463
32.4413
32.236
32.0306
31.8254
31.6204
31.4158
31.2118
31.0084
30.8059
30.6043
30.4038
30.2045
30.0065
29.81
29.615
29.4217
29.2302
29.0406
28.8529
28.6673
28.4839
28.3027
28.1238
27.9473
27.7734
27.6019
27.4331
27.267
27.1036
26.9431
26.7854
26.6305
26.4787
26.3298
26.184
26.0412
25.9015
25.765
25.6316
25.5014
25.3744
25.2506
25.13
25.0127
24.8987
24.7879
24.6804
24.5761
24.4751
24.3774
24.2829
24.1917
24.1037
24.019
23.9374
23.8591
23.7839
23.7119
23.643
23.5773
23.5146
23.455
23.3984
23.3448
23.2942
23.2466
23.2018
23.16
23.1209
23.0847
23.0513
23.0205
22.9925
22.9671
22.9444
22.9242
22.9065
22.8913
22.8786
22.8683
22.8603
22.8547
22.8513
22.8502
22.8512
22.8544
22.8597
22.867
22.8764
22.8877
22.901
22.9161
22.9331
22.9518
22.9723
22.9945
23.0184
23.0439
23.0709
23.0995
23.1296
23.1611
23.194
23.2283
23.2639
23.3009
23.339
23.3784
23.4189
23.4606
23.5033
23.5471
23.5919
23.6377
23.6845
23.7321
23.7806
23.83
23.8802
23.9311
23.9828
24.0352
24.0882
24.142
24.1963
24.2512
24.3066
24.3626
24.4191
24.4761
24.5334
24.5913
24.6494
24.708
24.7669
24.8261
24.8856
24.9454
25.0054
25.0656
25.126
25.1866
25.2473
25.3082
25.3692
25.4303
25.4914
25.5526
25.6139
25.6751
25.7364
25.7976
25.8588
25.92
25.9811
26.0421
26.103
26.1638
26.2245
26.285
26.3454
26.4056
26.4656
26.5254
26.5851
26.6445
26.7036
26.7626
26.8213
26.8797
26.9378
26.9957
27.0533
27.1105
27.1675
27.2241
27.2804
27.3363
27.3919
27.4472
27.5021
27.5566
27.6107
27.6645
27.7178
27.7707
27.8233
27.8754
27.9271
27.9783
28.0292
28.0796
28.1295
28.179
28.2281
28.2766
28.3247
28.3724
28.4196
28.4662
28.5124
28.5581
28.6034
28.6481
28.6923
28.736
28.7792
28.8219
28.864
28.9057
28.9468
28.9874
29.0275
29.067
29.106
29.1444
29.1824
29.2197
29.2566
29.2928
29.3285
29.3637
29.3983
29.4324
29.4659
29.4988
29.5311
29.5629
29.5942
29.6248
29.6549
29.6844
29.7133
29.7416
29.7694
29.7966
29.8232
29.8492
29.8746
29.8995
29.9237
29.9474
29.9705
29.993
30.0148
30.0361
30.0568
30.0769
30.0964
30.1153
30.1336
30.1513
30.1684
30.1849
30.2008
30.216
30.2307
30.2448
30.2583
30.2711
30.2834
30.295
30.306
30.3164
30.3262
30.3354
30.344
30.352
30.3594
30.3661
30.3722
30.3778
30.3827
30.387
30.3907
30.3937
30.3962
30.398
30.3993
30.3999
38.2174
38.205
38.1802
38.1434
38.095
38.0357
37.9658
37.8862
37.7973
37.6998
37.5943
37.4813
37.3613
37.2348
37.1021
36.9636
36.8198
36.6708
36.517
36.3586
36.1959
36.0291
35.8585
35.6842
35.5066
35.3257
35.1419
34.9553
34.7662
34.5746
34.3809
34.1852
33.9878
33.7887
33.5883
33.3866
33.1838
32.9802
32.7759
32.5711
32.3659
32.1605
31.9551
31.7497
31.5447
31.34
31.136
30.9326
30.73
30.5285
30.328
30.1287
29.9308
29.7343
29.5394
29.3462
29.1548
28.9653
28.7777
28.5922
28.4089
28.2279
28.0492
27.8729
27.6991
27.5278
27.3592
27.1933
27.0301
26.8698
26.7123
26.5577
26.4061
26.2575
26.1119
25.9694
25.83
25.6937
25.5606
25.4307
25.304
25.1805
25.0603
24.9433
24.8296
24.7191
24.6119
24.508
24.4073
24.31
24.2158
24.125
24.0373
23.9529
23.8717
23.7938
23.7189
23.6473
23.5788
23.5134
23.4511
23.3918
23.3356
23.2824
23.2322
23.1849
23.1406
23.0991
23.0604
23.0246
22.9915
22.9611
22.9335
22.9085
22.8861
22.8663
22.849
22.8342
22.8218
22.8119
22.8043
22.799
22.796
22.7952
22.7966
22.8001
22.8058
22.8135
22.8232
22.8349
22.8485
22.8639
22.8812
22.9003
22.9211
22.9436
22.9678
22.9936
23.021
23.0499
23.0803
23.1121
23.1453
23.1799
23.2158
23.253
23.2915
23.3311
23.3719
23.4138
23.4569
23.5009
23.546
23.5921
23.639
23.6869
23.7357
23.7853
23.8357
23.8869
23.9388
23.9914
24.0447
24.0986
24.1532
24.2083
24.2639
24.3201
24.3768
24.4339