/*--------------------------------*- C++ -*----------------------------------*\
| =========                 |                                                 |
| \\      /  F ield         | OpenFOAM: The Open Source CFD Toolbox           |
|  \\    /   O peration     | Version:  2212                                  |
|   \\  /    A nd           | Website:  www.openfoam.com                      |
|    \\/     M anipulation  |                                                 |
\*---------------------------------------------------------------------------*/
FoamFile
{
    version     2.0;
    format      ascii;
    arch        "LSB;label=32;scalar=64";
    class       surfaceScalarField;
    location    "490";
    object      phi;
}
// * * * * * * * * * * * * * * * * * * * * * * * * * * * * * * * * * * * * * //

dimensions      [1 0 -1 0 0 0 0];

oriented        oriented;

internalField   nonuniform List<scalar> 
408640
(
-1974.07
1971.78
-3913.31
1938.43
-5785.38
1871.26
-7568.38
1782.2
-9252.74
1683.56
-10839.6
1586.08
-12337.7
1497.36
-13760
1421.55
-15120.6
1359.77
-16432.4
1311.12
-17706.7
1273.56
-18952.1
1244.72
-20175.1
1222.27
-21380.1
1204.28
-22570
1189.18
-23746.5
1175.83
-24910.6
1163.41
-26062.7
1151.38
-27202.7
1139.39
-28330.7
1127.23
-29446.1
1114.79
-30548.8
1102.04
-31638.5
1088.95
-32714.7
1075.55
-33777.2
1061.85
-34825.8
1047.89
-35860.2
1033.69
-36880.1
1019.29
-37885.5
1004.69
-38876.1
989.928
-39851.7
975.021
-40812.4
959.984
-41757.9
944.831
-42688.1
929.578
-43603
914.234
-44502.4
898.811
-45386.4
883.318
-46254.8
867.766
-47107.6
852.161
-47944.8
836.512
-48766.2
820.827
-49572
805.112
-50361.9
789.373
-51136.2
773.618
-51894.6
757.852
-52637.3
742.082
-53364.3
726.313
-54075.4
710.55
-54770.8
694.8
-55450.5
679.066
-56114.4
663.355
-56762.6
647.672
-57395.2
632.02
-58012.2
616.406
-58613.6
600.834
-59199.5
585.308
-59769.8
569.833
-60324.8
554.413
-60864.4
539.053
-61388.7
523.757
-61897.7
508.529
-62391.6
493.373
-62870.4
478.293
-63334.2
463.293
-63783.1
448.376
-64217.1
433.547
-64636.4
418.809
-65041.1
404.166
-65431.2
389.62
-65806.8
375.176
-66168.1
360.837
-66515.1
346.605
-66848.1
332.484
-67167
318.477
-67472
304.587
-67763.2
290.816
-68040.8
277.167
-68304.8
263.643
-68555.5
250.247
-68792.8
236.98
-69017
223.845
-69228.3
210.844
-69426.6
197.979
-69612.2
185.253
-69785.2
172.667
-69945.8
160.223
-70094
147.923
-70230.1
135.768
-70354.2
123.761
-70466.4
111.901
-70566.8
100.191
-70655.7
88.6322
-70733.2
77.2252
-70799.5
65.9714
-70854.6
54.8715
-70898.8
43.9265
-70932.2
33.1372
-70954.9
22.5042
-70967.1
12.0281
-70969.1
1.70946
-70960.8
-8.45138
-70942.5
-18.4541
-70914.4
-28.2984
-70876.6
-37.9841
-70829.3
-47.5112
-70772.6
-56.8797
-70706.6
-66.0896
-70631.6
-75.1411
-70547.7
-84.0345
-70455.1
-92.7699
-70353.8
-101.348
-70244.2
-109.769
-70126.2
-118.033
-70000.2
-126.142
-69866.2
-134.095
-69724.3
-141.893
-69574.9
-149.538
-69417.9
-157.03
-69253.6
-164.369
-69082.1
-171.557
-68903.5
-178.595
-68718
-185.484
-68525.8
-192.224
-68327
-198.818
-68121.8
-205.266
-67910.2
-211.569
-67692.4
-217.729
-67468.7
-223.746
-67239
-229.623
-67003.6
-235.361
-66762.6
-240.96
-66516.2
-246.423
-66264.3
-251.751
-66007.3
-256.946
-65745.3
-262.008
-65478.2
-266.94
-65206.4
-271.742
-64929.9
-276.418
-64648.8
-280.967
-64363.3
-285.393
-64073.5
-289.696
-63779.5
-293.878
-63481.5
-297.94
-63179.5
-301.886
-62873.6
-305.715
-62564
-309.43
-62250.9
-313.033
-61934.2
-316.525
-61614.1
-319.908
-61290.8
-323.184
-60964.3
-326.354
-60634.7
-329.42
-60302.1
-332.385
-59966.7
-335.249
-59628.5
-338.014
-59287.6
-340.682
-58944.2
-343.255
-58598.2
-345.735
-58249.9
-348.122
-57899.3
-350.42
-57546.4
-352.629
-57191.5
-354.752
-56834.5
-356.79
-56475.5
-358.744
-56114.7
-360.616
-55752
-362.409
-55387.7
-364.123
-55021.7
-365.76
-54654.1
-367.322
-54285.1
-368.811
-53914.6
-370.228
-53542.8
-371.574
-53169.7
-372.851
-52795.4
-374.062
-52419.9
-375.206
-52043.4
-376.286
-51665.8
-377.304
-51287.3
-378.26
-50907.9
-379.157
-50527.7
-379.995
-50146.6
-380.776
-49764.9
-381.502
-49382.4
-382.174
-48999.4
-382.793
-48615.8
-383.36
-48231.6
-383.878
-47847
-384.347
-47462
-384.769
-47076.6
-385.145
-46690.9
-385.476
-46304.8
-385.763
-45918.6
-386.008
-45532.1
-386.212
-45145.4
-386.377
-44758.7
-386.502
-44371.8
-386.591
-43984.9
-386.642
-43598
-386.659
-43211.1
-386.641
-42824.3
-386.591
-42437.5
-386.508
-42050.9
-386.395
-41664.4
-386.252
-41278.1
-386.08
-40891.9
-385.88
-40506
-385.653
-40120.4
-385.4
-39735
-385.123
-39350
-384.821
-38965.2
-384.497
-38580.9
-384.15
-38196.8
-383.782
-37813.2
-383.393
-37430
-382.985
-37047.2
-382.558
-36664.9
-382.114
-36283
-381.652
-35901.7
-381.174
-35520.8
-380.68
-35140.4
-380.172
-34760.5
-379.649
-34381.2
-379.113
-34002.5
-378.565
-33624.3
-378.004
-33246.6
-377.432
-32869.6
-376.85
-32493.2
-376.258
-32117.3
-375.656
-31742.1
-375.046
-31367.5
-374.428
-30993.6
-373.802
-30620.2
-373.17
-30247.5
-372.531
-29875.5
-371.886
-29504.1
-371.237
-29133.4
-370.582
-28763.3
-369.924
-28393.9
-369.262
-28025.2
-368.596
-27657.1
-367.929
-27289.7
-367.259
-26923
-366.587
-26557
-365.914
-26191.7
-365.24
-25827
-364.567
-25463
-363.893
-25099.7
-363.219
-24737
-362.547
-24375.1
-361.876
-24013.8
-361.206
-23653.2
-360.539
-23293.2
-359.874
-22933.9
-359.212
-22575.3
-358.553
-22217.4
-357.897
-21860.1
-357.246
-21503.4
-356.598
-21147.4
-355.955
-20792.1
-355.316
-20437.3
-354.683
-20083.3
-354.055
-19729.8
-353.433
-19377
-352.816
-19024.7
-352.206
-18673.1
-351.602
-18322.1
-351.005
-17971.7
-350.415
-17621.8
-349.832
-17272.6
-349.256
-16923.9
-348.688
-16575.8
-348.128
-16228.2
-347.576
-15881.2
-347.032
-15534.7
-346.497
-15188.8
-345.97
-14843.4
-345.452
-14498.5
-344.944
-14154.1
-344.444
-13810.1
-343.954
-13466.7
-343.473
-13123.8
-343.003
-12781.3
-342.542
-12439.2
-342.091
-12097.7
-341.65
-11756.5
-341.22
-11415.8
-340.8
-11075.4
-340.39
-10735.5
-339.992
-10396
-339.604
-10056.9
-339.227
-9718.07
-338.861
-9379.65
-338.507
-9041.57
-338.164
-8703.83
-337.832
-8366.41
-337.512
-8029.31
-337.203
-7692.5
-336.906
-7355.98
-336.62
-7019.73
-336.347
-6683.75
-336.086
-6348.02
-335.836
-6012.53
-335.599
-5677.27
-335.374
-5342.22
-335.161
-5007.37
-334.961
-4672.72
-334.773
-4338.23
-334.598
-4003.92
-334.436
-3669.75
-334.287
-3335.72
-334.151
-3001.81
-334.028
-2668.02
-333.918
-2334.32
-333.822
-2000.7
-333.74
-1667.16
-333.671
-1333.66
-333.616
-1000.22
-333.574
-666.796
-333.545
-333.394
-333.528
-333.521
-1947.5
3918.47
-3863.53
3853.65
-5718.33
3725.28
-7491.33
3554.41
-9172.8
3364.24
-10762.6
3175.07
-12267.6
3001.65
-13699.1
2852.2
-15069.4
2729.32
-16390.6
2631.61
-17673.2
2555.45
-18925.6
2496.39
-20154.1
2450.1
-21363.3
2412.78
-22556.3
2381.44
-23734.9
2353.79
-24900.4
2328.19
-26053.2
2303.53
-27193.6
2279.09
-28321.5
2254.44
-29436.7
2229.32
-30538.9
2203.62
-31628
2177.32
-32703.5
2150.41
-33765.3
2122.95
-34813
2094.97
-35846.5
2066.53
-36865.6
2037.69
-37870.1
2008.47
-38859.7
1978.93
-39834.5
1949.11
-40794.2
1919.03
-41738.7
1888.72
-42668
1858.21
-43581.9
1827.52
-44480.4
1796.67
-45363.4
1765.69
-46230.9
1734.59
-47082.8
1703.38
-47919
1672.09
-48739.5
1640.72
-49544.3
1609.3
-50333.4
1577.83
-51106.7
1546.32
-51864.3
1514.8
-52606.1
1483.27
-53332.1
1451.74
-54042.3
1420.22
-54736.9
1388.73
-55415.7
1357.27
-56078.7
1325.86
-56726.1
1294.5
-57357.9
1263.21
-57974.1
1231.99
-58574.6
1200.85
-59159.7
1169.81
-59729.3
1138.87
-60283.4
1108.04
-60822.3
1077.33
-61345.8
1046.75
-61854.1
1016.3
-62347.2
986.003
-62825.3
955.853
-63288.4
925.864
-63736.5
896.042
-64169.9
866.395
-64588.5
836.931
-64992.4
807.655
-65381.9
778.576
-65756.8
749.699
-66117.5
721.032
-66463.9
692.58
-66796.2
664.35
-67114.5
636.348
-67418.9
608.579
-67709.6
581.049
-67986.6
553.764
-68250.1
526.728
-68500.2
499.947
-68737
473.425
-68960.7
447.167
-69171.4
421.177
-69369.2
395.461
-69554.3
370.02
-69726.9
344.861
-69887
319.985
-70034.8
295.397
-70170.4
271.1
-70294
247.096
-70405.8
223.389
-70505.9
199.982
-70594.4
176.876
-70671.6
154.074
-70737.4
131.578
-70792.2
109.391
-70836
87.5128
-70869.1
65.9462
-70891.5
44.6922
-70903.4
23.752
-70905.1
3.1266
-70896.5
-17.1832
-70878
-37.1767
-70849.6
-56.8536
-70811.6
-76.2133
-70764
-95.2559
-70707.1
-113.981
-70640.9
-132.389
-70565.7
-150.481
-70481.6
-168.256
-70388.8
-185.716
-70287.4
-202.861
-70177.6
-219.691
-70059.5
-236.209
-69933.3
-252.415
-69799.2
-268.31
-69657.3
-283.897
-69507.7
-299.175
-69350.6
-314.148
-69186.2
-328.816
-69014.6
-343.182
-68836
-357.248
-68650.5
-371.015
-68458.3
-384.486
-68259.4
-397.663
-68054.1
-410.549
-67842.6
-423.145
-67624.8
-435.455
-67401.1
-447.481
-67171.4
-459.225
-66936.1
-470.691
-66695.1
-481.881
-66448.7
-492.798
-66196.9
-503.445
-65940
-513.825
-65678
-523.941
-65411
-533.795
-65139.3
-543.392
-64862.9
-552.735
-64581.9
-561.826
-64296.6
-570.668
-64006.9
-579.266
-63713
-587.622
-63415.1
-595.74
-63113.2
-603.623
-62807.5
-611.274
-62498.1
-618.698
-62185.1
-625.896
-61868.6
-632.873
-61548.8
-639.632
-61225.6
-646.177
-60899.3
-652.511
-60569.9
-658.637
-60237.5
-664.559
-59902.3
-670.28
-59564.4
-675.804
-59223.7
-681.135
-58880.5
-686.275
-58534.8
-691.228
-58186.7
-695.998
-57836.4
-700.588
-57483.8
-705.001
-57129.1
-709.241
-56772.3
-713.311
-56413.6
-717.214
-56053.1
-720.954
-55690.7
-724.534
-55326.7
-727.958
-54961
-731.228
-54593.7
-734.347
-54225
-737.32
-53854.8
-740.149
-53483.3
-742.838
-53110.5
-745.388
-52736.5
-747.805
-52361.4
-750.09
-51985.2
-752.246
-51608
-754.278
-51229.8
-756.187
-50850.7
-757.976
-50470.8
-759.649
-50090.1
-761.208
-49708.7
-762.657
-49326.6
-763.997
-48943.9
-765.232
-48560.7
-766.365
-48176.9
-767.397
-47792.6
-768.333
-47408
-769.174
-47022.9
-769.923
-46637.6
-770.582
-46251.9
-771.154
-45866
-771.643
-45479.9
-772.049
-45093.7
-772.375
-44707.3
-772.624
-44320.8
-772.798
-43934.3
-772.9
-43547.8
-772.931
-43161.3
-772.894
-42774.8
-772.791
-42388.4
-772.625
-42002.2
-772.396
-41616.1
-772.108
-41230.2
-771.762
-40844.4
-771.361
-40458.9
-770.906
-40073.7
-770.4
-39688.7
-769.843
-39304.1
-769.239
-38919.8
-768.589
-38535.8
-767.894
-38152.2
-767.157
-37769
-766.379
-37386.2
-765.562
-37003.8
-764.707
-36621.9
-763.817
-36240.4
-762.893
-35859.4
-761.936
-35479
-760.948
-35099
-759.93
-34719.6
-758.884
-34340.7
-757.812
-33962.3
-756.714
-33584.5
-755.593
-33207.3
-754.449
-32830.7
-753.284
-32454.7
-752.099
-32079.3
-750.895
-31704.5
-749.675
-31330.3
-748.438
-30956.7
-747.186
-30583.8
-745.921
-30211.6
-744.643
-29839.9
-743.354
-29469
-742.054
-29098.7
-740.745
-28729
-739.428
-28360
-738.103
-27991.7
-736.773
-27624.1
-735.437
-27257.1
-734.097
-26890.9
-732.754
-26525.2
-731.408
-26160.3
-730.061
-25796.1
-728.713
-25432.5
-727.366
-25069.6
-726.019
-24707.4
-724.674
-24345.8
-723.332
-23985
-721.993
-23624.8
-720.659
-23265.2
-719.329
-22906.4
-718.005
-22548.2
-716.687
-22190.6
-715.376
-21833.8
-714.073
-21477.5
-712.778
-21121.9
-711.492
-20767
-710.215
-20412.7
-708.949
-20059
-707.693
-19706
-706.448
-19353.6
-705.216
-19001.8
-703.995
-18650.6
-702.788
-18300
-701.594
-17949.9
-700.414
-17600.5
-699.248
-17251.7
-698.097
-16903.4
-696.961
-16555.7
-695.841
-16208.6
-694.737
-15862
-693.65
-15515.9
-692.579
-15170.4
-691.526
-14825.4
-690.491
-14480.9
-689.474
-14136.9
-688.475
-13793.4
-687.495
-13450.4
-686.534
-13107.8
-685.593
-12765.8
-684.671
-12424.1
-683.77
-12083
-682.888
-11742.2
-682.028
-11401.9
-681.188
-11062
-680.37
-10722.5
-679.573
-10383.4
-678.797
-10044.6
-678.044
-9706.25
-677.313
-9368.24
-676.604
-9030.58
-675.918
-8693.24
-675.254
-8356.23
-674.614
-8019.54
-673.997
-7683.14
-673.403
-7347.02
-672.832
-7011.19
-672.286
-6675.61
-671.763
-6340.29
-671.264
-6005.21
-670.79
-5670.35
-670.34
-5335.71
-669.915
-5001.27
-669.514
-4667.02
-669.139
-4332.95
-668.789
-3999.04
-668.464
-3665.28
-668.166
-3331.66
-667.894
-2998.16
-667.648
-2664.77
-667.429
-2331.48
-667.238
-1998.27
-667.073
-1665.13
-666.936
-1332.04
-666.826
-999.001
-666.742
-665.988
-666.684
-332.992
-666.65
-666.639
-1919.08
5836.75
-3809.41
5743.2
-5644.61
5559.69
-7405.83
5314.83
-9083.34
5040.96
-10675.8
4766.76
-12188.4
4513.48
-13630.3
4293.3
-15012.2
4110.5
-16345
3963.6
-17638.1
3847.84
-18899.5
3757.13
-20135.5
3685.37
-21350.6
3627.17
-22548
3578.16
-23729.9
3535
-24897.7
3495.23
-26052
3457.17
-27193.3
3419.69
-28321.6
3382.07
-29436.8
3343.92
-30538.9
3305.02
-31627.6
3265.3
-32702.6
3224.75
-33763.7
3183.41
-34810.8
3141.33
-35843.5
3098.6
-36861.7
3055.26
-37865.3
3011.4
-38854.1
2967.06
-39828
2922.29
-40786.7
2877.15
-41730.4
2831.67
-42658.7
2785.89
-43571.7
2739.85
-44469.2
2693.58
-45351.3
2647.11
-46217.8
2600.46
-47068.7
2553.65
-47904
2506.72
-48723.6
2459.67
-49527.4
2412.54
-50315.6
2365.35
-51088
2318.1
-51844.6
2270.82
-52585.5
2223.53
-53310.6
2176.25
-54019.9
2128.98
-54713.6
2081.75
-55391.5
2034.58
-56053.7
1987.47
-56700.2
1940.45
-57331.1
1893.52
-57946.4
1846.7
-58546.1
1800.01
-59130.3
1753.47
-59699
1707.07
-60252.4
1660.84
-60790.4
1614.79
-61313.1
1568.93
-61820.6
1523.28
-62312.9
1477.84
-62790.2
1432.63
-63252.5
1387.66
-63699.9
1342.94
-64132.5
1298.49
-64550.3
1254.31
-64953.6
1210.41
-65342.3
1166.81
-65716.5
1123.51
-66076.5
1080.52
-66422.2
1037.86
-66753.8
995.531
-67071.5
953.544
-67375.2
911.907
-67665.2
870.628
-67941.6
829.717
-68204.4
789.18
-68453.9
749.025
-68690.1
709.259
-68913.2
669.889
-69123.3
630.922
-69320.6
592.364
-69505.1
554.22
-69677.1
516.498
-69836.6
479.202
-69983.9
442.337
-70119
405.908
-70242.2
369.92
-70353.4
334.377
-70453
299.283
-70541.1
264.642
-70617.7
230.457
-70683.1
196.731
-70737.5
163.467
-70780.9
130.668
-70813.5
98.3353
-70835.5
66.4718
-70847.1
35.079
-70848.3
4.15831
-70839.4
-26.289
-70820.5
-56.2619
-70791.8
-85.7597
-70753.4
-114.782
-70705.5
-143.329
-70648.2
-171.399
-70581.8
-198.995
-70506.3
-226.115
-70421.9
-252.761
-70328.8
-278.933
-70227.1
-304.633
-70117.1
-329.863
-69998.8
-354.623
-69872.4
-378.915
-69738
-402.741
-69595.9
-426.104
-69446.1
-449.005
-69288.9
-471.448
-69124.3
-493.434
-68952.6
-514.967
-68773.8
-536.05
-68588.1
-556.685
-68395.8
-576.876
-68196.8
-596.626
-67991.4
-615.939
-67779.7
-634.819
-67561.9
-653.268
-67338.1
-671.292
-67108.4
-688.894
-66873
-706.078
-66631.9
-722.848
-66385.5
-739.21
-66133.7
-755.166
-65876.7
-770.722
-65614.7
-785.881
-65347.8
-800.65
-65076.1
-815.032
-64799.7
-829.032
-64518.8
-842.656
-64233.4
-855.907
-63943.8
-868.791
-63650
-881.312
-63352.1
-893.476
-63050.3
-905.288
-62744.7
-916.753
-62435.4
-927.876
-62122.5
-938.662
-61806.1
-949.116
-61486.3
-959.243
-61163.3
-969.049
-60837.1
-978.539
-60507.8
-987.717
-60175.6
-996.59
-59840.6
-1005.16
-59502.8
-1013.44
-59162.3
-1021.42
-58819.2
-1029.12
-58473.7
-1036.54
-58125.8
-1043.69
-57775.7
-1050.56
-57423.3
-1057.17
-57068.8
-1063.53
-56712.3
-1069.62
-56353.8
-1075.47
-55993.4
-1081.07
-55631.3
-1086.43
-55267.5
-1091.56
-54902
-1096.45
-54535
-1101.13
-54166.5
-1105.58
-53796.6
-1109.81
-53425.4
-1113.84
-53052.9
-1117.66
-52679.1
-1121.28
-52304.3
-1124.7
-51928.4
-1127.93
-51551.4
-1130.97
-51173.5
-1133.82
-50794.7
-1136.5
-50415.1
-1139
-50034.7
-1141.34
-49653.6
-1143.5
-49271.9
-1145.51
-48889.5
-1147.36
-48506.5
-1149.05
-48123.1
-1150.59
-47739.2
-1151.99
-47354.8
-1153.25
-46970.1
-1154.37
-46585.1
-1155.35
-46199.8
-1156.21
-45814.2
-1156.93
-45428.5
-1157.54
-45042.6
-1158.02
-44656.5
-1158.39
-44270.4
-1158.65
-43884.3
-1158.8
-43498.1
-1158.84
-43112
-1158.79
-42725.9
-1158.63
-42339.9
-1158.37
-41954
-1158.03
-41568.3
-1157.59
-41182.7
-1157.07
-40797.3
-1156.47
-40412.2
-1155.78
-40027.4
-1155.02
-39642.8
-1154.18
-39258.5
-1153.27
-38874.6
-1152.3
-38491
-1151.25
-38107.8
-1150.14
-37724.9
-1148.97
-37342.5
-1147.75
-36960.6
-1146.46
-36579
-1145.13
-36198
-1143.74
-35817.4
-1142.3
-35437.3
-1140.82
-35057.8
-1139.29
-34678.7
-1137.72
-34300.2
-1136.11
-33922.3
-1134.46
-33544.9
-1132.78
-33168.1
-1131.06
-32791.9
-1129.31
-32416.3
-1127.53
-32041.3
-1125.73
-31666.9
-1123.9
-31293.1
-1122.04
-30920
-1120.16
-30547.5
-1118.26
-30175.6
-1116.34
-29804.4
-1114.41
-29433.8
-1112.46
-29063.9
-1110.5
-28694.7
-1108.52
-28326.1
-1106.53
-27958.2
-1104.54
-27591
-1102.53
-27224.5
-1100.52
-26858.6
-1098.51
-26493.4
-1096.49
-26128.9
-1094.47
-25765.1
-1092.44
-25401.9
-1090.42
-25039.4
-1088.4
-24677.6
-1086.39
-24316.5
-1084.37
-23956
-1082.36
-23596.2
-1080.36
-23237.1
-1078.37
-22878.7
-1076.38
-22520.9
-1074.4
-22163.8
-1072.44
-21807.3
-1070.48
-21451.5
-1068.54
-21096.3
-1066.61
-20741.8
-1064.7
-20387.9
-1062.8
-20034.7
-1060.91
-19682
-1059.05
-19330
-1057.2
-18978.6
-1055.37
-18627.9
-1053.56
-18277.7
-1051.77
-17928.1
-1050
-17579.1
-1048.25
-17230.7
-1046.52
-16882.8
-1044.82
-16535.5
-1043.14
-16188.8
-1041.48
-15842.6
-1039.85
-15497
-1038.25
-15151.9
-1036.67
-14807.3
-1035.11
-14463.2
-1033.59
-14119.6
-1032.09
-13776.5
-1030.62
-13433.9
-1029.18
-13091.8
-1027.77
-12750.1
-1026.39
-12408.9
-1025.03
-12068.2
-1023.71
-11727.8
-1022.42
-11387.9
-1021.16
-11048.4
-1019.94
-10709.3
-1018.74
-10370.6
-1017.58
-10032.3
-1016.45
-9694.34
-1015.35
-9356.74
-1014.29
-9019.48
-1013.26
-8682.56
-1012.26
-8345.96
-1011.3
-8009.68
-1010.38
-7673.69
-1009.49
-7337.99
-1008.63
-7002.57
-1007.81
-6667.4
-1007.03
-6332.49
-1006.28
-5997.82
-1005.57
-5663.38
-1004.89
-5329.15
-1004.26
-4995.12
-1003.66
-4661.28
-1003.09
-4327.62
-1002.57
-3994.12
-1002.08
-3660.77
-1001.63
-3327.55
-1001.23
-2994.47
-1000.86
-2661.49
-1000.53
-2328.61
-1000.24
-1995.81
-999.995
-1663.08
-999.79
-1330.4
-999.624
-997.772
-999.499
-665.169
-999.413
-332.582
-999.363
-999.346
-1882.42
7718.38
-3739.79
7599.78
-5549.72
7368.84
-7295.59
7059.91
-8967.79
6712.37
-10563.7
6361.86
-12086.2
6035.19
-13541.9
5748.3
-14939.6
5507.37
-16288.1
5311.35
-17595.8
5154.87
-18870.1
5030.71
-20116.8
4931.41
-21340.6
4850.26
-22544.9
4781.7
-23732
4721.39
-24903.5
4666.1
-26060.5
4613.53
-27203.7
4562.14
-28333.2
4510.9
-29449.2
4459.21
-30551.5
4406.73
-31640.2
4353.31
-32715
4298.89
-33775.8
4243.51
-34822.4
4187.21
-35854.5
4130.08
-36872.1
4072.19
-37875
4013.61
-38863
3954.41
-39836
3894.67
-40794
3834.44
-41736.8
3773.77
-42664.2
3712.71
-43576.3
3651.31
-44473
3589.6
-45354.1
3527.62
-46219.7
3465.41
-47069.7
3403
-47904
3340.42
-48722.7
3277.69
-49525.6
3214.85
-50312.8
3151.93
-51084.3
3088.93
-51840
3025.9
-52579.9
2962.86
-53304.1
2899.82
-54012.5
2836.81
-54705.2
2773.85
-55382.1
2710.95
-56043.4
2648.16
-56689
2585.47
-57319
2522.91
-57933.3
2460.5
-58532.1
2398.26
-59115.4
2336.21
-59683.3
2274.36
-60235.7
2212.74
-60772.8
2151.35
-61294.6
2090.22
-61801.2
2029.36
-62292.7
1968.79
-62769.1
1908.53
-63230.6
1848.59
-63677.1
1788.98
-64108.8
1729.72
-64525.8
1670.83
-64928.2
1612.32
-65316.1
1554.2
-65689.5
1496.48
-66048.6
1439.19
-66393.5
1382.33
-66724.4
1325.91
-67041.2
1269.94
-67344.1
1214.44
-67633.4
1159.43
-67908.9
1104.9
-68171
1050.87
-68419.7
997.347
-68655.2
944.345
-68877.6
891.873
-69086.9
839.937
-69283.5
788.547
-69467.3
737.71
-69638.6
687.434
-69797.5
637.727
-69944
588.596
-70078.5
540.046
-70201
492.084
-70311.6
444.715
-70410.5
397.945
-70498
351.779
-70574
306.221
-70638.8
261.275
-70692.5
216.946
-70735.3
173.236
-70767.4
130.149
-70788.8
87.6872
-70799.8
45.853
-70800.5
4.64842
-70791.1
-35.9249
-70771.7
-75.8657
-70742.5
-115.173
-70703.6
-153.846
-70655.2
-191.885
-70597.4
-229.29
-70530.5
-266.06
-70454.6
-302.197
-70369.8
-337.702
-70276.3
-372.575
-70174.2
-406.819
-70063.7
-440.435
-69945
-473.425
-69818.2
-505.791
-69683.5
-537.537
-69541
-568.664
-69390.9
-599.177
-69233.4
-629.077
-69068.5
-658.37
-68896.4
-687.058
-68717.4
-715.145
-68531.4
-742.636
-68338.8
-769.535
-68139.6
-795.847
-67933.9
-821.576
-67722
-846.726
-67504
-871.304
-67279.9
-895.314
-67050
-918.762
-66814.4
-941.653
-66573.2
-963.992
-66326.6
-985.786
-66074.7
-1007.04
-65817.6
-1027.76
-65555.4
-1047.95
-65288.4
-1067.63
-65016.5
-1086.78
-64740.1
-1105.43
-64459
-1123.57
-64173.6
-1141.22
-63883.9
-1158.38
-63590.1
-1175.06
-63292.2
-1191.26
-62990.3
-1206.99
-62684.7
-1222.26
-62375.4
-1237.07
-62062.4
-1251.43
-61746
-1265.36
-61426.3
-1278.84
-61103.3
-1291.9
-60777.1
-1304.53
-60447.9
-1316.76
-60115.8
-1328.57
-59780.8
-1339.98
-59443
-1351
-59102.6
-1361.63
-58759.7
-1371.89
-58414.2
-1381.76
-58066.4
-1391.28
-57716.4
-1400.43
-57364.1
-1409.23
-57009.7
-1417.68
-56653.4
-1425.8
-56295
-1433.58
-55934.8
-1441.03
-55572.9
-1448.17
-55209.2
-1454.99
-54843.9
-1461.51
-54477.1
-1467.73
-54108.8
-1473.65
-53739.1
-1479.29
-53368
-1484.64
-52995.7
-1489.72
-52622.2
-1494.53
-52247.6
-1499.08
-51871.9
-1503.38
-51495.2
-1507.42
-51117.5
-1511.22
-50739
-1514.78
-50359.6
-1518.11
-49979.5
-1521.21
-49598.6
-1524.09
-49217.1
-1526.76
-48835
-1529.21
-48452.4
-1531.46
-48069.2
-1533.51
-47685.6
-1535.37
-47301.5
-1537.03
-46917.1
-1538.52
-46532.4
-1539.82
-46147.4
-1540.95
-45762.1
-1541.92
-45376.7
-1542.72
-44991.1
-1543.36
-44605.4
-1543.84
-44219.6
-1544.18
-43833.8
-1544.37
-43447.9
-1544.42
-43062.1
-1544.34
-42676.4
-1544.12
-42290.7
-1543.78
-41905.2
-1543.31
-41519.8
-1542.73
-41134.6
-1542.03
-40749.6
-1541.22
-40364.8
-1540.3
-39980.3
-1539.28
-39596.1
-1538.16
-39212.2
-1536.94
-38828.6
-1535.63
-38445.4
-1534.24
-38062.6
-1532.76
-37680.1
-1531.19
-37298.1
-1529.55
-36916.5
-1527.84
-36535.4
-1526.05
-36154.7
-1524.2
-35774.5
-1522.28
-35394.8
-1520.3
-35015.6
-1518.26
-34637
-1516.16
-34258.9
-1514.01
-33881.3
-1511.81
-33504.4
-1509.57
-33128
-1507.27
-32752.1
-1504.94
-32376.9
-1502.57
-32002.3
-1500.16
-31628.3
-1497.71
-31255
-1495.24
-30882.2
-1492.73
-30510.1
-1490.2
-30138.7
-1487.64
-29767.9
-1485.06
-29397.7
-1482.45
-29028.3
-1479.83
-28659.4
-1477.2
-28291.3
-1474.55
-27923.8
-1471.89
-27557
-1469.21
-27190.9
-1466.53
-26825.4
-1463.84
-26460.6
-1461.15
-26096.5
-1458.45
-25733.1
-1455.76
-25370.4
-1453.06
-25008.3
-1450.37
-24646.9
-1447.68
-24286.2
-1444.99
-23926.2
-1442.31
-23566.8
-1439.64
-23208.2
-1436.98
-22850.1
-1434.33
-22492.8
-1431.7
-22136.1
-1429.08
-21780
-1426.47
-21424.6
-1423.88
-21069.9
-1421.31
-20715.8
-1418.75
-20362.3
-1416.22
-20009.5
-1413.71
-19657.3
-1411.22
-19305.7
-1408.76
-18954.8
-1406.32
-18604.4
-1403.9
-18254.7
-1401.51
-17905.5
-1399.15
-17556.9
-1396.82
-17208.9
-1394.52
-16861.5
-1392.25
-16514.6
-1390.01
-16168.3
-1387.8
-15822.6
-1385.63
-15477.4
-1383.49
-15132.7
-1381.38
-14788.5
-1379.31
-14444.8
-1377.28
-14101.7
-1375.28
-13759
-1373.32
-13416.9
-1371.4
-13075.2
-1369.52
-12733.9
-1367.67
-12393.2
-1365.87
-12052.8
-1364.11
-11712.9
-1362.39
-11373.4
-1360.71
-11034.4
-1359.08
-10695.7
-1357.48
-10357.4
-1355.93
-10019.5
-1354.43
-9681.98
-1352.96
-9344.81
-1351.55
-9007.98
-1350.17
-8671.49
-1348.85
-8335.32
-1347.57
-7999.46
-1346.33
-7663.9
-1345.15
-7328.62
-1344.01
-6993.62
-1342.91
-6658.89
-1341.87
-6324.4
-1340.87
-5990.16
-1339.92
-5656.14
-1339.02
-5322.34
-1338.17
-4988.73
-1337.37
-4655.32
-1336.62
-4322.08
-1335.92
-3989.01
-1335.27
-3656.09
-1334.68
-3323.3
-1334.13
-2990.64
-1333.64
-2658.08
-1333.2
-2325.63
-1332.82
-1993.26
-1332.49
-1660.95
-1332.22
-1328.7
-1332
-996.499
-1331.83
-664.322
-1331.72
-332.16
-1331.65
-1331.63
-1852.01
9569.61
-3681.96
9428.94
-5470.71
9156.81
-7203.5
8791.9
-8871
8379.08
-10469.6
7959.69
-12000.6
7565.34
-13468.5
7215.46
-14880.1
6918.24
-16242.9
6673.4
-17564.2
6475.43
-18850.6
6316.37
-20107.7
6187.78
-21340
6081.86
-22551
5992.03
-23743.4
5913.05
-24918.9
5840.94
-26078.9
5772.82
-27224.1
5706.67
-28355
5641.14
-29471.9
5575.4
-30574.8
5508.94
-31663.6
5441.51
-32738.4
5373
-33799
5303.39
-34845.2
5232.74
-35876.9
5161.1
-36893.9
5088.56
-37896.2
5015.2
-38883.5
4941.1
-39855.8
4866.34
-40813
4790.98
-41755
4715.09
-42681.7
4638.72
-43592.9
4561.93
-44488.7
4484.76
-45369
4407.27
-46233.8
4329.48
-47082.9
4251.46
-47916.3
4173.22
-48734
4094.81
-49536.1
4016.25
-50322.3
3937.59
-51092.9
3858.85
-51847.6
3780.06
-52586.7
3701.26
-53309.9
3622.46
-54017.4
3543.7
-54709.2
3465.01
-55385.2
3386.4
-56045.5
3307.91
-56690.2
3229.56
-57319.2
3151.37
-57932.7
3073.37
-58530.5
2995.58
-59112.9
2918.03
-59679.8
2840.73
-60231.3
2763.71
-60767.5
2686.99
-61288.4
2610.59
-61794.1
2534.53
-62284.6
2458.83
-62760.1
2383.52
-63220.7
2308.61
-63666.3
2234.11
-64097.1
2160.06
-64513.2
2086.46
-64914.7
2013.33
-65301.7
1940.7
-65674.2
1868.58
-66032.5
1796.98
-66376.5
1725.91
-66706.4
1655.41
-67022.4
1585.47
-67324.5
1516.12
-67612.9
1447.37
-67887.6
1379.23
-68148.8
1311.71
-68396.7
1244.83
-68631.4
1178.6
-68852.9
1113.03
-69061.4
1048.14
-69257.2
983.921
-69440.2
920.398
-69610.7
857.577
-69768.8
795.467
-69914.6
734.077
-70048.3
673.414
-70170
613.486
-70279.8
554.3
-70378.1
495.863
-70464.7
438.182
-70540
381.26
-70604.1
325.105
-70657.2
269.719
-70699.3
215.109
-70730.7
161.277
-70751.4
108.227
-70761.7
55.962
-70761.8
4.48403
-70751.7
-46.2047
-70731.7
-96.1026
-70701.8
-145.208
-70662.3
-193.522
-70613.3
-241.041
-70555
-287.768
-70487.5
-333.703
-70411
-378.845
-70325.6
-423.197
-70231.6
-466.759
-70129
-509.535
-70018
-551.525
-69898.8
-592.734
-69771.5
-633.162
-69636.3
-672.815
-69493.4
-711.695
-69342.8
-749.806
-69184.8
-787.153
-69019.5
-823.739
-68847
-859.569
-68667.5
-894.65
-68481.2
-928.984
-68288.2
-962.579
-68088.6
-995.439
-67882.6
-1027.57
-67670.3
-1058.98
-67451.9
-1089.67
-67227.6
-1119.66
-66997.4
-1148.94
-66761.5
-1177.53
-66520
-1205.42
-66273.1
-1232.64
-66020.9
-1259.18
-65763.5
-1285.05
-65501.2
-1310.26
-65233.9
-1334.83
-64961.8
-1358.74
-64685.1
-1382.03
-64403.9
-1404.68
-64118.3
-1426.72
-63828.5
-1448.14
-63534.5
-1468.96
-63236.4
-1489.18
-62934.5
-1508.82
-62628.7
-1527.88
-62319.3
-1546.37
-62006.2
-1564.3
-61689.8
-1581.68
-61369.9
-1598.51
-61046.9
-1614.81
-60720.6
-1630.58
-60391.4
-1645.84
-60059.2
-1660.58
-59724.2
-1674.83
-59386.4
-1688.58
-59046
-1701.85
-58703.1
-1714.64
-58357.7
-1726.97
-58009.9
-1738.84
-57659.9
-1750.26
-57307.7
-1761.24
-56953.3
-1771.78
-56597
-1781.91
-56238.8
-1791.62
-55878.6
-1800.92
-55516.8
-1809.82
-55153.2
-1818.33
-54788
-1826.46
-54421.3
-1834.21
-54053.1
-1841.6
-53683.5
-1848.63
-53312.6
-1855.3
-52940.5
-1861.64
-52567.1
-1867.64
-52192.7
-1873.31
-51817.1
-1878.66
-51440.6
-1883.7
-51063.1
-1888.44
-50684.8
-1892.87
-50305.6
-1897.02
-49925.7
-1900.88
-49545.1
-1904.47
-49163.8
-1907.79
-48781.9
-1910.84
-48399.4
-1913.64
-48016.5
-1916.19
-47633.1
-1918.5
-47249.3
-1920.57
-46865.1
-1922.41
-46480.7
-1924.04
-46095.9
-1925.44
-45711
-1926.63
-45325.8
-1927.62
-44940.5
-1928.41
-44555.1
-1929.01
-44169.6
-1929.42
-43784
-1929.65
-43398.5
-1929.71
-43013
-1929.59
-42627.5
-1929.32
-42242.2
-1928.88
-41857
-1928.29
-41471.9
-1927.55
-41087
-1926.66
-40702.4
-1925.64
-40317.9
-1924.49
-39933.8
-1923.2
-39549.9
-1921.8
-39166.3
-1920.27
-38783.1
-1918.63
-38400.2
-1916.88
-38017.7
-1915.02
-37635.6
-1913.06
-37254
-1911.01
-36872.7
-1908.86
-36491.9
-1906.62
-36111.6
-1904.29
-35731.8
-1901.89
-35352.5
-1899.41
-34973.7
-1896.85
-34595.4
-1894.23
-34217.7
-1891.54
-33840.5
-1888.78
-33463.9
-1885.97
-33087.9
-1883.1
-32712.5
-1880.18
-32337.6
-1877.21
-31963.4
-1874.2
-31589.8
-1871.14
-31216.9
-1868.04
-30844.5
-1864.9
-30472.8
-1861.73
-30101.8
-1858.53
-29731.4
-1855.3
-29361.6
-1852.05
-28992.6
-1848.77
-28624.1
-1845.47
-28256.4
-1842.16
-27889.3
-1838.83
-27522.9
-1835.48
-27157.2
-1832.13
-26792.1
-1828.77
-26427.8
-1825.4
-26064.1
-1822.03
-25701.1
-1818.66
-25338.8
-1815.28
-24977.1
-1811.92
-24616.2
-1808.55
-24255.9
-1805.19
-23896.3
-1801.84
-23537.3
-1798.51
-23179
-1795.18
-22821.4
-1791.87
-22464.5
-1788.57
-22108.2
-1785.29
-21752.6
-1782.03
-21397.6
-1778.8
-21043.3
-1775.58
-20689.6
-1772.39
-20336.6
-1769.22
-19984.2
-1766.08
-19632.4
-1762.97
-19281.3
-1759.89
-18930.7
-1756.84
-18580.8
-1753.82
-18231.5
-1750.83
-17882.7
-1747.88
-17534.6
-1744.97
-17187
-1742.09
-16840
-1739.25
-16493.6
-1736.45
-16147.7
-1733.69
-15802.4
-1730.97
-15457.6
-1728.3
-15113.3
-1725.67
-14769.6
-1723.08
-14426.4
-1720.54
-14083.6
-1718.04
-13741.4
-1715.59
-13399.7
-1713.19
-13058.4
-1710.84
-12717.6
-1708.53
-12377.2
-1706.28
-12037.3
-1704.08
-11697.9
-1701.93
-11358.8
-1699.83
-11020.2
-1697.78
-10681.9
-1695.79
-10344.1
-1693.86
-10006.6
-1691.97
-9669.51
-1690.15
-9332.77
-1688.37
-8996.37
-1686.66
-8660.3
-1685
-8324.56
-1683.4
-7989.13
-1681.86
-7654
-1680.37
-7319.16
-1678.95
-6984.59
-1677.58
-6650.29
-1676.28
-6316.23
-1675.03
-5982.42
-1673.85
-5648.83
-1672.72
-5315.45
-1671.66
-4982.28
-1670.66
-4649.3
-1669.72
-4316.49
-1668.84
-3983.85
-1668.03
-3651.35
-1667.29
-3319
-1666.61
-2986.77
-1665.99
-2654.64
-1665.45
-2322.62
-1664.97
-1990.68
-1664.56
-1658.8
-1664.21
-1326.98
-1663.94
-995.209
-1663.73
-663.461
-1663.59
-331.728
-1663.51
-1663.49
-1822.55
11391.4
-3626.05
11231.7
-5394.3
10924.3
-7114.28
10511.1
-8777.05
10041.1
-10378.3
9560.09
-11917.5
9103.83
-13397.7
8694.86
-14823.7
8343.43
-16201.3
8050.34
-17537
7810.3
-18836.4
7615.05
-20104.8
7455.48
-21346.6
7322.98
-22565.4
7210.12
-23763.9
7110.88
-24944.2
7020.57
-26107.8
6935.74
-27255.7
6853.89
-28388.6
6773.33
-29506.9
6692.95
-30610.6
6612.05
-31700.1
6530.26
-32775.1
6447.37
-33835.7
6363.32
-34881.8
6278.14
-35913.2
6191.86
-36929.9
6104.56
-37931.7
6016.34
-38918.5
5927.26
-39890.2
5837.42
-40846.8
5746.88
-41788.1
5655.72
-42714
5564.01
-43624.6
5471.8
-44519.6
5379.15
-45399.1
5286.12
-46263
5192.75
-47111.3
5099.08
-47943.8
5005.17
-48760.7
4911.06
-49561.9
4816.78
-50347.3
4722.37
-51116.9
4627.87
-51870.8
4533.32
-52608.9
4438.74
-53331.2
4344.18
-54037.8
4249.67
-54728.6
4155.23
-55403.7
4060.9
-56063
3966.71
-56706.8
3872.69
-57334.8
3778.87
-57947.3
3685.27
-58544.2
3591.93
-59125.6
3498.87
-59691.5
3406.12
-60242.1
3313.7
-60777.3
3221.64
-61297.2
3129.97
-61801.9
3038.71
-62291.5
2947.89
-62766
2857.52
-63225.5
2767.63
-63670.1
2678.25
-64100
2589.4
-64515.1
2501.1
-64915.6
2413.36
-65301.6
2326.21
-65673.1
2239.68
-66030.4
2153.77
-66373.4
2068.52
-66702.4
1983.93
-67017.4
1900.02
-67318.5
1816.82
-67605.9
1734.33
-67879.6
1652.58
-68139.9
1571.58