/*--------------------------------*- C++ -*----------------------------------*\
| =========                 |                                                 |
| \\      /  F ield         | OpenFOAM: The Open Source CFD Toolbox           |
|  \\    /   O peration     | Version:  2212                                  |
|   \\  /    A nd           | Website:  www.openfoam.com                      |
|    \\/     M anipulation  |                                                 |
\*---------------------------------------------------------------------------*/
FoamFile
{
    version     2.0;
    format      ascii;
    arch        "LSB;label=32;scalar=64";
    class       volScalarField;
    location    "290";
    object      p_rgh;
}
// * * * * * * * * * * * * * * * * * * * * * * * * * * * * * * * * * * * * * //

dimensions      [1 -1 -2 0 0 0 0];

internalField   nonuniform List<scalar> 
204800
(
11.3099
11.3048
11.294
11.2782
11.257
11.2308
11.1996
11.1636
11.1229
11.0778
11.0285
10.9751
10.918
10.8575
10.7937
10.7272
10.658
10.5866
10.5134
10.4385
10.3623
10.2852
10.2074
10.1293
10.051
9.97299
9.89537
9.81844
9.74245
9.6676
9.59411
9.52219
9.45203
9.38381
9.31769
9.25385
9.19244
9.1336
9.07747
9.02419
8.97386
8.92662
8.88256
8.8418
8.80441
8.7705
8.74014
8.71342
8.69038
8.67111
8.65566
8.64407
8.6364
8.63268
8.63294
8.63722
8.64553
8.65789
8.67432
8.69482
8.7194
8.74805
8.78076
8.81753
8.85834
8.90316
8.95198
9.00476
9.06148
9.12209
9.18657
9.25486
9.32692
9.40271
9.48217
9.56525
9.65189
9.74204
9.83562
9.93259
10.0329
10.1364
10.2431
10.3529
10.4658
10.5816
10.7003
10.8218
10.946
11.073
11.2025
11.3345
11.4689
11.6057
11.7447
11.8859
12.0293
12.1747
12.322
12.4712
12.6222
12.7749
12.9292
13.0852
13.2426
13.4014
13.5615
13.7229
13.8855
14.0493
14.214
14.3797
14.5464
14.7139
14.8821
15.051
15.2206
15.3908
15.5614
15.7325
15.9041
16.0759
16.248
16.4203
16.5928
16.7654
16.938
17.1106
17.2832
17.4557
17.6281
17.8002
17.9722
18.1438
18.3151
18.4861
18.6566
18.8267
18.9963
19.1654
19.334
19.502
19.6693
19.836
20.002
20.1673
20.3318
20.4956
20.6586
20.8207
20.9821
21.1425
21.302
21.4607
21.6184
21.7751
21.9309
22.0856
22.2394
22.3921
22.5438
22.6944
22.844
22.9924
23.1398
23.2861
23.4312
23.5752
23.718
23.8597
24.0003
24.1397
24.2778
24.4148
24.5507
24.6853
24.8187
24.9509
25.0819
25.2117
25.3402
25.4675
25.5937
25.7185
25.8422
25.9646
26.0858
26.2057
26.3245
26.442
26.5582
26.6732
26.787
26.8996
27.0109
27.121
27.2299
27.3376
27.444
27.5493
27.6533
27.7561
27.8577
27.9581
28.0573
28.1553
28.2521
28.3478
28.4422
28.5355
28.6276
28.7185
28.8083
28.897
28.9844
29.0708
29.156
29.2401
29.323
29.4048
29.4855
29.5651
29.6436
29.7211
29.7974
29.8726
29.9468
30.0199
30.0919
30.1629
30.2329
30.3018
30.3696
30.4365
30.5023
30.5671
30.6309
30.6937
30.7555
30.8164
30.8762
30.9351
30.993
31.05
31.106
31.1611
31.2152
31.2684
31.3207
31.372
31.4225
31.4721
31.5207
31.5685
31.6154
31.6614
31.7066
31.7509
31.7943
31.8369
31.8787
31.9196
31.9597
31.999
32.0374
32.0751
32.1119
32.148
32.1833
32.2177
32.2514
32.2844
32.3165
32.3479
32.3786
32.4085
32.4376
32.466
32.4937
32.5207
32.5469
32.5724
32.5972
32.6213
32.6446
32.6673
32.6893
32.7106
32.7312
32.7511
32.7703
32.7888
32.8067
32.8239
32.8405
32.8563
32.8715
32.8861
32.9
32.9132
32.9258
32.9378
32.9491
32.9598
32.9698
32.9792
32.988
32.9961
33.0036
33.0104
33.0167
33.0223
33.0273
33.0316
33.0353
33.0385
33.0409
33.0428
33.044
33.0447
11.3266
11.3207
11.309
11.2916
11.2686
11.2402
11.2065
11.1678
11.1243
11.0762
11.024
10.9678
10.9081
10.845
10.7791
10.7105
10.6395
10.5666
10.4921
10.4161
10.3391
10.2613
10.183
10.1045
10.026
9.94781
9.87013
9.79321
9.71726
9.64251
9.56915
9.49737
9.42737
9.35932
9.29338
9.22972
9.16848
9.10982
9.05386
9.00074
8.95058
8.90349
8.85958
8.81895
8.78171
8.74792
8.71768
8.69107
8.66814
8.64897
8.6336
8.6221
8.61449
8.61084
8.61116
8.61548
8.62384
8.63623
8.65269
8.67321
8.69779
8.72644
8.75915
8.7959
8.83669
8.88148
8.93026
8.983
9.03966
9.10021
9.16462
9.23283
9.30482
9.38051
9.45988
9.54285
9.62938
9.71941
9.81287
9.9097
10.0098
10.1132
10.2198
10.3294
10.4421
10.5578
10.6763
10.7976
10.9217
11.0484
11.1777
11.3095
11.4437
11.5803
11.7191
11.8601
12.0033
12.1484
12.2955
12.4445
12.5952
12.7477
12.9018
13.0574
13.2146
13.3731
13.533
13.6942
13.8565
14.0199
14.1844
14.3499
14.5162
14.6834
14.8514
15.02
15.1893
15.3592
15.5295
15.7004
15.8716
16.0431
16.2149
16.3869
16.5591
16.7314
16.9037
17.0761
17.2484
17.4205
17.5926
17.7644
17.9361
18.1074
18.2784
18.449
18.6193
18.7891
18.9584
19.1272
19.2954
19.4631
19.6301
19.7965
19.9622
20.1272
20.2915
20.455
20.6176
20.7795
20.9405
21.1007
21.2599
21.4182
21.5756
21.7321
21.8876
22.042
22.1955
22.348
22.4994
22.6497
22.799
22.9472
23.0943
23.2402
23.3851
23.5288
23.6714
23.8128
23.9531
24.0922
24.2301
24.3669
24.5024
24.6368
24.77
24.9019
25.0327
25.1622
25.2905
25.4176
25.5435
25.6681
25.7915
25.9137
26.0346
26.1544
26.2729
26.3901
26.5062
26.621
26.7345
26.8469
26.958
27.0679
27.1766
27.284
27.3903
27.4953
27.5991
27.7017
27.8031
27.9033
28.0023
28.1002
28.1968
28.2922
28.3865
28.4796
28.5715
28.6623
28.7519
28.8404
28.9277
29.0138
29.0989
29.1828
29.2656
29.3472
29.4278
29.5072
29.5856
29.6628
29.739
29.8141
29.8881
29.9611
30.033
30.1038
30.1736
30.2424
30.3101
30.3769
30.4425
30.5072
30.5709
30.6336
30.6953
30.756
30.8157
30.8745
30.9323
30.9891
31.045
31.1
31.154
31.2071
31.2593
31.3106
31.3609
31.4104
31.4589
31.5066
31.5534
31.5994
31.6444
31.6886
31.732
31.7745
31.8162
31.857
31.897
31.9362
31.9746
32.0122
32.049
32.085
32.1202
32.1546
32.1882
32.2211
32.2532
32.2845
32.3151
32.3449
32.374
32.4024
32.43
32.4569
32.4831
32.5085
32.5333
32.5573
32.5806
32.6032
32.6252
32.6464
32.667
32.6868
32.706
32.7245
32.7424
32.7595
32.776
32.7919
32.807
32.8216
32.8354
32.8487
32.8612
32.8732
32.8845
32.8951
32.9051
32.9145
32.9232
32.9313
32.9388
32.9457
32.9519
32.9575
32.9625
32.9668
32.9705
32.9736
32.9761
32.978
32.9792
32.9798
11.3015
11.2957
11.2841
11.2669
11.2441
11.2159
11.1825
11.144
11.1008
11.0531
11.0012
10.9454
10.886
10.8234
10.7577
10.6895
10.6189
10.5463
10.4721
10.3965
10.3198
10.2423
10.1642
10.086
10.0078
9.9298
9.85235
9.77566
9.69993
9.62539
9.55224
9.48066
9.41085
9.34298
9.27723
9.21374
9.15268
9.09418
9.03839
8.98543
8.93543
8.88849
8.84474
8.80426
8.76716
8.73352
8.70342
8.67694
8.65415
8.63511
8.61987
8.6085
8.60102
8.59749
8.59793
8.60238
8.61085
8.62337
8.63994
8.66057
8.68527
8.71404
8.74686
8.78372
8.82461
8.86951
8.9184
8.97124
9.02801
9.08866
9.15317
9.22148
9.29356
9.36936
9.44882
9.53189
9.61851
9.70863
9.80218
9.89911
9.99934
10.1028
10.2094
10.3192
10.432
10.5477
10.6663
10.7877
10.9118
11.0386
11.168
11.2999
11.4342
11.5708
11.7097
11.8508
11.994
12.1392
12.2863
12.4354
12.5862
12.7387
12.8928
13.0486
13.2058
13.3644
13.5243
13.6855
13.8479
14.0113
14.1759
14.3414
14.5077
14.675
14.843
15.0117
15.181
15.3509
15.5213
15.6921
15.8633
16.0349
16.2067
16.3788
16.551
16.7233
16.8956
17.068
17.2403
17.4125
17.5845
17.7564
17.928
18.0994
18.2704
18.441
18.6113
18.7811
18.9504
19.1192
19.2874
19.4551
19.6221
19.7885
19.9542
20.1192
20.2834
20.4469
20.6096
20.7714
20.9324
21.0926
21.2518
21.4101
21.5675
21.7239
21.8794
22.0339
22.1873
22.3397
22.4911
22.6414
22.7907
22.9389
23.0859
23.2319
23.3767
23.5204
23.663
23.8044
23.9447
24.0837
24.2216
24.3584
24.4939
24.6282
24.7614
24.8933
25.024
25.1535
25.2818
25.4089
25.5347
25.6593
25.7827
25.9049
26.0258
26.1455
26.2639
26.3812
26.4972
26.612
26.7255
26.8378
26.9489
27.0588
27.1674
27.2749
27.3811
27.4861
27.5899
27.6924
27.7938
27.894
27.993
28.0908
28.1874
28.2828
28.377
28.4701
28.562
28.6528
28.7423
28.8308
28.9181
29.0042
29.0892
29.1731
29.2559
29.3375
29.418
29.4975
29.5758
29.653
29.7292
29.8042
29.8782
29.9512
30.0231
30.0939
30.1637
30.2324
30.3001
30.3668
30.4325
30.4971
30.5608
30.6234
30.6851
30.7458
30.8055
30.8643
30.9221
30.9789
31.0348
31.0897
31.1437
31.1968
31.249
31.3002
31.3505
31.4
31.4485
31.4962
31.543
31.5889
31.634
31.6782
31.7215
31.764
31.8057
31.8465
31.8865
31.9257
31.964
32.0016
32.0384
32.0743
32.1095
32.1439
32.1775
32.2104
32.2425
32.2738
32.3044
32.3342
32.3633
32.3916
32.4193
32.4461
32.4723
32.4977
32.5225
32.5465
32.5698
32.5924
32.6143
32.6356
32.6561
32.676
32.6952
32.7137
32.7315
32.7487
32.7652
32.781
32.7962
32.8107
32.8246
32.8378
32.8503
32.8623
32.8736
32.8842
32.8942
32.9036
32.9123
32.9204
32.9279
32.9347
32.941
32.9465
32.9515
32.9559
32.9596
32.9627
32.9652
32.967
32.9683
32.9689
11.2831
11.277
11.265
11.2471
11.2235
11.1943
11.1597
11.12
11.0755
11.0265
10.9733
10.9162
10.8557
10.7919
10.7253
10.6561
10.5848
10.5116
10.4368
10.3608
10.2838
10.2061
10.128
10.0498
9.9716
9.89376
9.81648
9.73999
9.6645
9.59022
9.51734
9.44605
9.37654
9.30897
9.24352
9.18034
9.11958
9.06138
9.00588
8.9532
8.90348
8.85682
8.81333
8.77311
8.73626
8.70286
8.673
8.64675
8.62418
8.60535
8.59032
8.57914
8.57186
8.56851
8.56913
8.57375
8.58239
8.59506
8.61178
8.63256
8.65739
8.68629
8.71923
8.75621
8.79721
8.84221
8.8912
8.94413
9.00098
9.06172
9.1263
9.19468
9.26682
9.34267
9.42217
9.50529
9.59195
9.6821
9.77568
9.87262
9.97286
10.0763
10.183
10.2927
10.4055
10.5212
10.6398
10.7612
10.8853
11.012
11.1414
11.2732
11.4074
11.544
11.6829
11.8239
11.967
12.1121
12.2592
12.4081
12.5589
12.7113
12.8654
13.021
13.1781
13.3366
13.4964
13.6575
13.8197
13.9831
14.1475
14.3128
14.4791
14.6462
14.814
14.9826
15.1518
15.3215
15.4917
15.6624
15.8335
16.0049
16.1766
16.3484
16.5205
16.6926
16.8648
17.0369
17.2091
17.3811
17.553
17.7246
17.8961
18.0672
18.2381
18.4085
18.5786
18.7482
18.9173
19.0859
19.254
19.4214
19.5882
19.7544
19.9199
20.0847
20.2487
20.412
20.5745
20.7361
20.8969
21.0569
21.2159
21.374
21.5312
21.6874
21.8427
21.9969
22.1502
22.3024
22.4536
22.6037
22.7528
22.9007
23.0476
23.1933
23.338
23.4815
23.6238
23.7651
23.9051
24.044
24.1817
24.3182
24.4536
24.5877
24.7206
24.8524
24.9829
25.1122
25.2403
25.3672
25.4928
25.6173
25.7405
25.8624
25.9832
26.1027
26.221
26.338
26.4539
26.5685
26.6818
26.794
26.9049
27.0146
27.1231
27.2303
27.3364
27.4412
27.5448
27.6473
27.7485
27.8485
27.9473
28.0449
28.1414
28.2367
28.3308
28.4237
28.5154
28.606
28.6955
28.7838
28.8709
28.9569
29.0418
29.1255
29.2081
29.2896
29.37
29.4493
29.5275
29.6046
29.6807
29.7556
29.8295
29.9023
29.974
30.0448
30.1144
30.183
30.2506
30.3172
30.3828
30.4473
30.5109
30.5734
30.635
30.6956
30.7552
30.8138
30.8715
30.9282
30.984
31.0389
31.0928
31.1458
31.1979
31.249
31.2993
31.3486
31.3971
31.4447
31.4914
31.5372
31.5822
31.6263
31.6696
31.712
31.7536
31.7943
31.8343
31.8734
31.9117
31.9492
31.9859
32.0218
32.0569
32.0912
32.1248
32.1576
32.1896
32.2209
32.2514
32.2812
32.3102
32.3385
32.3661
32.3929
32.419
32.4444
32.4691
32.4931
32.5164
32.539
32.5608
32.582
32.6025
32.6224
32.6415
32.66
32.6778
32.6949
32.7114
32.7272
32.7423
32.7568
32.7707
32.7839
32.7964
32.8083
32.8196
32.8302
32.8402
32.8495
32.8583
32.8663
32.8738
32.8806
32.8868
32.8924
32.8974
32.9017
32.9054
32.9085
32.911
32.9129
32.9141
32.9147
11.2345
11.2286
11.2168
11.1993
11.176
11.1473
11.1133
11.0743
11.0305
10.9822
10.9297
10.8734
10.8135
10.7505
10.6846
10.6162
10.5455
10.473
10.3989
10.3234
10.247
10.1699
10.0923
10.0145
9.93686
9.85948
9.78264
9.70658
9.6315
9.55762
9.48513
9.41422
9.34507
9.27787
9.21276
9.14992
9.08949
9.03162
8.97644
8.92408
8.87466
8.8283
8.7851
8.74517
8.7086
8.67548
8.6459
8.61992
8.59761
8.57905
8.56428
8.55335
8.54632
8.54322
8.54409
8.54895
8.55782
8.57073
8.58769
8.6087
8.63377
8.66289
8.69605
8.73326
8.77448
8.8197
8.8689
8.92205
8.97912
9.04006
9.10485
9.17344
9.24579
9.32184
9.40155
9.48486
9.57172
9.66207
9.75584
9.85298
9.95341
10.0571
10.1639
10.2738
10.3868
10.5027
10.6214
10.743
10.8673
10.9942
11.1237
11.2557
11.3901
11.5268
11.6658
11.807
11.9502
12.0955
12.2427
12.3918
12.5427
12.6952
12.8494
13.0052
13.1624
13.321
13.4809
13.6421
13.8045
13.968
14.1325
14.2979
14.4643
14.6315
14.7994
14.968
15.1373
15.3071
15.4775
15.6482
15.8194
15.9908
16.1626
16.3345
16.5066
16.6788
16.851
17.0232
17.1954
17.3675
17.5394
17.7111
17.8826
18.0538
18.2246
18.3951
18.5652
18.7348
18.904
19.0726
19.2407
19.4082
19.575
19.7412
19.9067
20.0715
20.2355
20.3988
20.5613
20.7229
20.8837
21.0437
21.2027
21.3608
21.518
21.6742
21.8294
21.9837
22.1369
22.2891
22.4403
22.5904
22.7394
22.8874
23.0342
23.1799
23.3245
23.468
23.6104
23.7515
23.8916
24.0304
24.1681
24.3046
24.4399
24.574
24.7069
24.8386
24.9691
25.0984
25.2264
25.3533
25.4789
25.6033
25.7264
25.8484
25.9691
26.0886
26.2068
26.3238
26.4396
26.5542
26.6675
26.7796
26.8905
27.0001
27.1086
27.2158
27.3218
27.4266
27.5302
27.6325
27.7337
27.8337
27.9325
28.0301
28.1265
28.2217
28.3158
28.4087
28.5004
28.5909
28.6803
28.7686
28.8557
28.9416
29.0265
29.1102
29.1927
29.2742
29.3546
29.4338
29.512
29.5891
29.665
29.74
29.8138
29.8866
29.9583
30.029
30.0986
30.1672
30.2347
30.3013
30.3668
30.4313
30.4948
30.5574
30.6189
30.6794
30.739
30.7976
30.8553
30.912
30.9677
31.0226
31.0764
31.1294
31.1814
31.2326
31.2828
31.3321
31.3806
31.4281
31.4748
31.5206
31.5656
31.6097
31.6529
31.6953
31.7369
31.7776
31.8175
31.8566
31.8949
31.9324
31.969
32.0049
32.04
32.0743
32.1079
32.1407
32.1727
32.2039
32.2344
32.2642
32.2932
32.3215
32.349
32.3758
32.4019
32.4273
32.452
32.476
32.4992
32.5218
32.5436
32.5648
32.5853
32.6051
32.6243
32.6427
32.6605
32.6776
32.6941
32.7099
32.725
32.7395
32.7533
32.7665
32.7791
32.791
32.8022
32.8128
32.8228
32.8322
32.8409
32.849
32.8564
32.8633
32.8695
32.875
32.88
32.8843
32.888
32.8911
32.8936
32.8955
32.8967
32.8973
11.1873
11.1814
11.1695
11.1517
11.1283
11.0993
11.0651
11.0258
10.9817
10.9331
10.8804
10.8238
10.7638
10.7006
10.6346
10.5661
10.4955
10.423
10.3489
10.2737
10.1974
10.1206
10.0433
9.96581
9.88846
9.81145
9.73501
9.65936
9.5847
9.51125
9.4392
9.36873
9.30003
9.23327
9.1686
9.1062
9.0462
8.98876
8.93399
8.88205
8.83303
8.78707
8.74426
8.70471
8.66851
8.63576
8.60653
8.5809
8.55893
8.5407
8.52626
8.51565
8.50893
8.50614
8.5073
8.51246
8.52162
8.53481
8.55204
8.57332
8.59864
8.62802
8.66144
8.69889
8.74035
8.78581
8.83524
8.88861
8.94589
9.00705
9.07205
9.14084
9.21339
9.28963
9.36953
9.45303
9.54006
9.63058
9.72452
9.82182
9.92241
10.0262
10.1332
10.2433
10.3563
10.4724
10.5913
10.7129
10.8373
10.9644
11.094
11.2261
11.3606
11.4974
11.6365
11.7777
11.9211
12.0664
12.2137
12.3628
12.5138
12.6664
12.8206
12.9764
13.1336
13.2923
13.4523
13.6135
13.7758
13.9393
14.1038
14.2693
14.4357
14.6028
14.7708
14.9394
15.1086
15.2784
15.4487
15.6195
15.7906
15.962
16.1337
16.3056
16.4776
16.6497
16.8219
16.9941
17.1662
17.3382
17.51
17.6816
17.853
18.0241
18.1949
18.3653
18.5353
18.7048
18.8739
19.0424
19.2104
19.3777
19.5445
19.7106
19.876
20.0406
20.2046
20.3677
20.5301
20.6916
20.8522
21.012
21.1709
21.3289
21.486
21.6421
21.7972
21.9513
22.1044
22.2564
22.4075
22.5574
22.7063
22.8541
23.0008
23.1464
23.2909
23.4342
23.5764
23.7174
23.8573
23.996
24.1336
24.2699
24.4051
24.539
24.6718
24.8033
24.9337
25.0628
25.1907
25.3174
25.4429
25.5671
25.6902
25.812
25.9325
26.0518
26.1699
26.2868
26.4025
26.5169
26.6301
26.742
26.8528
26.9623
27.0706
27.1777
27.2835
27.3882
27.4917
27.5939
27.6949
27.7948
27.8934
27.9909
28.0872
28.1823
28.2762
28.369
28.4605
28.551
28.6403
28.7284
28.8154
28.9012
28.9859
29.0695
29.152
29.2333
29.3136
29.3927
29.4707
29.5477
29.6236
29.6984
29.7721
29.8448
29.9164
29.987
30.0565
30.125
30.1924
30.2589
30.3243
30.3887
30.4521
30.5146
30.576
30.6365
30.696
30.7545
30.8121
30.8687
30.9243
30.9791
31.0329
31.0857
31.1377
31.1888
31.2389
31.2882
31.3365
31.384
31.4306
31.4764
31.5212
31.5652
31.6084
31.6508
31.6922
31.7329
31.7728
31.8118
31.85
31.8874
31.924
31.9599
31.9949
32.0292
32.0627
32.0954
32.1273
32.1585
32.189
32.2187
32.2477
32.2759
32.3034
32.3302
32.3562
32.3816
32.4062
32.4301
32.4534
32.4759
32.4977
32.5189
32.5393
32.5591
32.5782
32.5966
32.6144
32.6315
32.6479
32.6637
32.6788
32.6933
32.7071
32.7202
32.7328
32.7446
32.7559
32.7665
32.7764
32.7858
32.7945
32.8025
32.81
32.8168
32.823
32.8286
32.8335
32.8378
32.8415
32.8446
32.8471
32.849
32.8502
32.8508
11.1179
11.1121
11.1005
11.0832
11.0603
11.0321
10.9986
10.9601
10.9169
10.8694
10.8176
10.7621
10.7031
10.641
10.576
10.5085
10.4388
10.3672
10.2941
10.2197
10.1443
10.0682
9.99162
9.91488
9.83822
9.76187
9.68606
9.61102
9.53695
9.46407
9.39258
9.32266
9.25448
9.18824
9.12408
9.06217
9.00266
8.94569
8.89139
8.8399
8.79134
8.74581
8.70344
8.66431
8.62854
8.59619
8.56737
8.54213
8.52057
8.50272
8.48866
8.47844
8.47209
8.46967
8.4712
8.47672
8.48624
8.49978
8.51737
8.53899
8.56467
8.59439
8.62815
8.66594
8.70774
8.75353
8.80329
8.85699
8.91461
8.97609
9.04141
9.11053
9.18339
9.25995
9.34016
9.42397
9.51131
9.60214
9.69638
9.79398
9.89487
9.99899
10.1063
10.2166
10.33
10.4463
10.5654
10.6874
10.8121
10.9394
11.0693
11.2016
11.3364
11.4734
11.6128
11.7543
11.8978
12.0434
12.191
12.3403
12.4915
12.6443
12.7988
12.9548
13.1122
13.2711
13.4312
13.5926
13.7552
13.9189
14.0836
14.2492
14.4157
14.5831
14.7512
14.9199
15.0893
15.2593
15.4297
15.6006
15.7718
15.9434
16.1152
16.2872
16.4593
16.6316
16.8039
16.9761
17.1483
17.3204
17.4923
17.6641
17.8355
18.0067
18.1776
18.348
18.5181
18.6877
18.8568
19.0254
19.1934
19.3608
19.5276
19.6937
19.8592
20.0239
20.1878
20.351
20.5134
20.6749
20.8356
20.9954
21.1543
21.3123
21.4694
21.6255
21.7806
21.9347
22.0878
22.2399
22.3909
22.5408
22.6897
22.8375
22.9842
23.1298
23.2742
23.4175
23.5597
23.7007
23.8406
23.9792
24.1168
24.2531
24.3882
24.5221
24.6549
24.7864
24.9167
25.0458
25.1737
25.3003
25.4258
25.55
25.6729
25.7947
25.9152
26.0345
26.1526
26.2694
26.385
26.4994
26.6125
26.7244
26.8351
26.9446
27.0528
27.1599
27.2657
27.3703
27.4737
27.5759
27.6769
27.7767
27.8753
27.9727
28.0689
28.164
28.2579
28.3506
28.4421
28.5325
28.6217
28.7098
28.7967
28.8825
28.9672
29.0507
29.1331
29.2144
29.2946
29.3737
29.4517
29.5287
29.6045
29.6792
29.7529
29.8255
29.8971
29.9676
30.0371
30.1056
30.173
30.2394
30.3048
30.3691
30.4325
30.4949
30.5563
30.6167
30.6762
30.7347
30.7922
30.8488
30.9044
30.9591
31.0128
31.0657
31.1176
31.1686
31.2187
31.268
31.3163
31.3637
31.4103
31.456
31.5009
31.5448
31.588
31.6303
31.6717
31.7124
31.7522
31.7912
31.8294
31.8668
31.9034
31.9392
31.9742
32.0084
32.0419
32.0746
32.1065
32.1377
32.1681
32.1978
32.2268
32.255
32.2824
32.3092
32.3352
32.3606
32.3852
32.4091
32.4323
32.4548
32.4766
32.4977
32.5182
32.5379
32.557
32.5754
32.5932
32.6103
32.6267
32.6424
32.6575
32.672
32.6858
32.6989
32.7115
32.7233
32.7345
32.7451
32.7551
32.7644
32.7731
32.7812
32.7886
32.7954
32.8016
32.8072
32.8121
32.8165
32.8202
32.8232
32.8257
32.8276
32.8288
32.8294
11.0469
11.0411
11.0296
11.0124
10.9897
10.9617
10.9284
10.8903
10.8475
10.8002
10.7489
10.6938
10.6353
10.5736
10.5091
10.4421
10.373
10.3019
10.2293
10.1555
10.0807
10.0051
9.92916
9.85303
9.77696
9.70121
9.626
9.55157
9.47811
9.40583
9.33494
9.26561
9.19803
9.13237
9.0688
9.00746
8.94852
8.8921
8.83836
8.7874
8.73937
8.69437
8.65251
8.61389
8.5786
8.54675
8.5184
8.49364
8.47253
8.45514
8.44153
8.43175
8.42584
8.42384
8.42579
8.43172
8.44165
8.4556
8.47358
8.4956
8.52167
8.55177
8.58591
8.62407
8.66624
8.71239
8.76251
8.81657
8.87453
8.93636
9.00202
9.07148
9.14467
9.22156
9.3021
9.38622
9.47388
9.56502
9.65957
9.75747
9.85865
9.96306
10.0706
10.1812
10.2949
10.4115
10.5309
10.6531
10.778
10.9056
11.0357
11.1683
11.3033
11.4406
11.5802
11.7219
11.8657
12.0115
12.1592
12.3088
12.4601
12.6131
12.7677
12.9239
13.0815
13.2405
13.4009
13.5624
13.7251
13.8889
14.0537
14.2195
14.3862
14.5536
14.7218
14.8907
15.0602
15.2302
15.4007
15.5717
15.743
15.9146
16.0865
16.2586
16.4308
16.603
16.7754
16.9477
17.1199
17.292
17.464
17.6357
17.8072
17.9784
18.1492
18.3197
18.4897
18.6593
18.8284
18.997
19.165
19.3324
19.4991
19.6652
19.8306
19.9953
20.1592
20.3223
20.4846
20.6461
20.8068
20.9665
21.1254
21.2833
21.4403
21.5963
21.7513
21.9054
22.0584
22.2104
22.3613
22.5112
22.66
22.8077
22.9543
23.0998
23.2441
23.3873
23.5294
23.6703
23.8101
23.9487
24.0861
24.2223
24.3573
24.4911
24.6238
24.7552
24.8854
25.0144
25.1421
25.2687
25.394
25.5181
25.641
25.7626
25.883
26.0022
26.1201
26.2368
26.3523
26.4666
26.5796
26.6914
26.802
26.9114
27.0195
27.1264
27.2321
27.3366
27.4399
27.542
27.6429
27.7426
27.8411
27.9384
28.0345
28.1294
28.2232
28.3158
28.4072
28.4975
28.5866
28.6746
28.7614
28.8471
28.9317
29.0151
29.0974
29.1786
29.2587
29.3377
29.4156
29.4925
29.5682
29.6428
29.7164
29.789
29.8604
29.9309
30.0003
30.0686
30.1359
30.2023
30.2675
30.3318
30.3951
30.4574
30.5187
30.5791
30.6384
30.6968
30.7543
30.8108
30.8663
30.921
30.9746
31.0274
31.0793
31.1302
31.1802
31.2294
31.2777
31.325
31.3715
31.4172
31.462
31.5059
31.549
31.5912
31.6326
31.6732
31.7129
31.7519
31.79
31.8273
31.8639
31.8996
31.9346
31.9688
32.0022
32.0348
32.0667
32.0979
32.1282
32.1579
32.1868
32.2149
32.2424
32.2691
32.2951
32.3204
32.3449
32.3688
32.392
32.4145
32.4362
32.4573
32.4777
32.4975
32.5165
32.5349
32.5526
32.5697
32.5861
32.6018
32.6169
32.6313
32.6451
32.6582
32.6707
32.6826
32.6938
32.7043
32.7143
32.7236
32.7323
32.7403
32.7478
32.7546
32.7607
32.7663
32.7712
32.7755
32.7792
32.7823
32.7848
32.7866
32.7879
32.7885
10.9592
10.9536
10.9424
10.9257
10.9036
10.8763
10.844
10.8068
10.765
10.7189
10.6688
10.6149
10.5576
10.4971
10.4338
10.368
10.3
10.2301
10.1586
10.0858
10.012
9.93739
9.86236
9.78712
9.71191
9.63699
9.56259
9.48893
9.41622
9.34468
9.27449
9.20586
9.13896
9.07397
9.01105
8.95035
8.89203
8.83624
8.78309
8.73274
8.68529
8.64086
8.59957
8.56151
8.52677
8.49546
8.46764
8.44341
8.42282
8.40595
8.39284
8.38356
8.37815
8.37664
8.37908
8.3855
8.39591
8.41033
8.42879
8.45128
8.47781
8.50837
8.54297
8.58159
8.62421
8.67082
8.72139
8.7759
8.83431
8.89658
8.96268
9.03257
9.1062
9.18352
9.26449
9.34904
9.43713
9.52868
9.62365
9.72197
9.82357
9.92838
10.0363
10.1474
10.2614
10.3784
10.4982
10.6208
10.7461
10.8741
11.0046
11.1375
11.2729
11.4106
11.5505
11.6925
11.8367
11.9828
12.1308
12.2807
12.4324
12.5857
12.7407
12.8971
13.0551
13.2144
13.375
13.5368
13.6998
13.8639
14.029
14.195
14.3619
14.5296
14.698
14.8671
15.0368
15.2071
15.3778
15.549
15.7205
15.8923
16.0644
16.2366
16.409
16.5815
16.754
16.9264
17.0988
17.2711
17.4432
17.6151
17.7867
17.958
18.129
18.2996
18.4697
18.6394
18.8086
18.9773
19.1453
19.3128
19.4797
19.6458
19.8113
19.976
20.14
20.3032
20.4656
20.6271
20.7878
20.9476
21.1065
21.2645
21.4215
21.5775
21.7326
21.8866
22.0397
22.1917
22.3426
22.4925
22.6413
22.789
22.9356
23.0811
23.2255
23.3687
23.5107
23.6516
23.7914
23.93
24.0673
24.2035
24.3385
24.4723
24.6049
24.7363
24.8665
24.9955
25.1232
25.2497
25.375
25.4991
25.6219
25.7435
25.8639
25.983
26.1009
26.2176
26.333
26.4472
26.5602
26.672
26.7825
26.8918
26.9999
27.1068
27.2125
27.3169
27.4201
27.5222
27.623
27.7226
27.8211
27.9183
28.0144
28.1093
28.203
28.2956
28.3869
28.4772
28.5662
28.6541
28.7409
28.8266
28.9111
28.9944
29.0767
29.1579
29.2379
29.3168
29.3947
29.4715
29.5471
29.6217
29.6953
29.7678
29.8392
29.9096
29.9789
30.0472
30.1145
30.1807
30.246
30.3102
30.3735
30.4357
30.497
30.5573
30.6166
30.675
30.7324
30.7888
30.8443
30.8989
30.9525
31.0053
31.0571
31.108
31.158
31.2071
31.2553
31.3026
31.3491
31.3947
31.4395
31.4833
31.5264
31.5686
31.6099
31.6505
31.6902
31.7291
31.7672
31.8045
31.841
31.8767
31.9117
31.9458
31.9792
32.0118
32.0437
32.0748
32.1051
32.1348
32.1636
32.1918
32.2192
32.2459
32.2718
32.2971
32.3217
32.3455
32.3686
32.3911
32.4129
32.4339
32.4543
32.474
32.4931
32.5114
32.5291
32.5462
32.5626
32.5783
32.5933
32.6078
32.6215
32.6346
32.6471
32.659
32.6702
32.6807
32.6906
32.6999
32.7086
32.7167
32.7241
32.7309
32.7371
32.7426
32.7475
32.7518
32.7555
32.7586
32.7611
32.7629
32.7642
32.7648
10.8682
10.8627
10.8517
10.8353
10.8136
10.7868
10.755
10.7184
10.6773
10.6319
10.5826
10.5295
10.473
10.4134
10.3509
10.286
10.2189
10.1498
10.0792
10.0073
9.93429
9.86056
9.78636
9.71193
9.63754
9.56341
9.4898
9.41691
9.34497
9.27419
9.20475
9.13686
9.07069
9.00642
8.94421
8.88422
8.8266
8.77148
8.71902
8.66933
8.62254
8.57876
8.5381
8.50067
8.46655
8.43585
8.40864
8.38499
8.36499
8.34869
8.33616
8.32744
8.32258
8.32163
8.32461
8.33156
8.3425
8.35746
8.37643
8.39944
8.42648
8.45756
8.49266
8.53178
8.5749
8.622
8.67306
8.72805
8.78693
8.84968
8.91626
8.98662
9.06071
9.1385
9.21992
9.30493
9.39346
9.48546
9.58087
9.67962
9.78165
9.88689
9.99527
10.1067
10.2212
10.3386
10.4588
10.5818
10.7075
10.8358
10.9667
11.1
11.2358
11.3738
11.514
11.6565
11.8009
11.9474
12.0958
12.246
12.398
12.5516
12.7069
12.8637
13.0219
13.1815
13.3423
13.5044
13.6677
13.832
13.9973
14.1636
14.3307
14.4987
14.6673
14.8366
15.0066
15.177
15.3479
15.5193
15.691
15.863
16.0352
16.2076
16.3801
16.5527
16.7254
16.8979
17.0705
17.2428
17.415
17.587
17.7587
17.9302
18.1012
18.2719
18.4421
18.6119
18.7811
18.9498
19.118
19.2855
19.4524
19.6186
19.7841
19.9488
20.1128
20.2761
20.4384
20.6
20.7607
20.9205
21.0794
21.2373
21.3943
21.5504
21.7054
21.8594
22.0125
22.1644
22.3153
22.4652
22.614
22.7616
22.9082
23.0536
23.1979
23.3411
23.4831
23.6239
23.7636
23.9021
24.0394
24.1756
24.3105
24.4442
24.5768
24.7081
24.8382
24.9671
25.0947
25.2212
25.3464
25.4703
25.5931
25.7146
25.8349
25.9539
26.0718
26.1884
26.3037
26.4178
26.5307
26.6424
26.7529
26.8621
26.9701
27.0769
27.1824
27.2868
27.3899
27.4919
27.5926
27.6921
27.7905
27.8877
27.9836
28.0784
28.1721
28.2645
28.3558
28.4459
28.5349
28.6227
28.7094
28.795
28.8794
28.9627
29.0448
29.1259
29.2059
29.2847
29.3625
29.4391
29.5147
29.5893
29.6627
29.7351
29.8064
29.8767
29.946
30.0142
30.0814
30.1476
30.2128
30.2769
30.3401
30.4023
30.4635
30.5237
30.5829
30.6412
30.6985
30.7549
30.8103
30.8648
30.9184
30.9711
31.0228
31.0736
31.1236
31.1726
31.2208
31.268
31.3144
31.36
31.4047
31.4485
31.4915
31.5336
31.5749
31.6154
31.6551
31.6939
31.732
31.7692
31.8057
31.8413
31.8762
31.9103
31.9437
31.9762
32.008
32.0391
32.0694
32.099
32.1278
32.1559
32.1833
32.2099
32.2359
32.2611
32.2856
32.3094
32.3325
32.3549
32.3767
32.3977
32.4181
32.4378
32.4568
32.4751
32.4928
32.5098
32.5261
32.5418
32.5569
32.5713
32.585
32.5981
32.6106
32.6224
32.6336
32.6441
32.654
32.6633
32.672
32.68
32.6874
32.6942
32.7004
32.7059
32.7108
32.7151
32.7188
32.7219
32.7244
32.7262
32.7274
32.7281
10.7645
10.7591
10.7485
10.7326
10.7115
10.6854
10.6545
10.6189
10.5789
10.5347
10.4866
10.4348
10.3795
10.3212
10.2601
10.1965
10.1306
10.0628
9.9934
9.92264
9.85081
9.7782
9.70506
9.63167
9.55828
9.48513
9.41245
9.34048
9.26942
9.1995
9.13092
9.06385
8.99849
8.93502
8.87359
8.81436
8.7575
8.70313
8.6514
8.60243
8.55635
8.51328
8.47331
8.43657
8.40313
8.37309
8.34654
8.32355
8.30419
8.28853
8.27663
8.26853
8.2643
8.26396
8.26755
8.27511
8.28665
8.3022
8.32177
8.34537
8.373
8.40466
8.44034
8.48004
8.52373
8.57141
8.62304
8.67859
8.73805
8.80136
8.8685
8.93942
9.01407
9.0924
9.17438
9.25993
9.34901
9.44155
9.5375
9.63679
9.73935
9.84512
9.95402
10.066
10.181
10.2989
10.4196
10.5431
10.6693
10.7981
10.9295
11.0633
11.1995
11.338
11.4787
11.6216
11.7665
11.9134
12.0623
12.2129
12.3653
12.5194
12.6751
12.8322
12.9908
13.1508
13.3121
13.4746
13.6382
13.8029
13.9686
14.1352
14.3026
14.4709
14.6399
14.8095
14.9797
15.1505
15.3217
15.4934
15.6653
15.8376
16.0101
16.1827
16.3555
16.5284
16.7012
16.874
17.0468
17.2194
17.3918
17.564
17.7359
17.9075
18.0787
18.2495
18.4199
18.5898
18.7593
18.9281
19.0964
19.264
19.431
19.5974
19.763
19.9279
20.092
20.2553
20.4178
20.5794
20.7402
20.9
21.059
21.217
21.3741
21.5302
21.6853
21.8394
21.9924
22.1444
22.2954
22.4453
22.5941
22.7418
22.8883
23.0338
23.1781
23.3213
23.4633
23.6042
23.7438
23.8823
24.0197
24.1558
24.2907
24.4244
24.557
24.6883
24.8183
24.9472
25.0748
25.2012
25.3264
25.4504
25.5731
25.6946
25.8148
25.9339
26.0516
26.1682
26.2835
26.3976
26.5105
26.6221
26.7325
26.8417
26.9496
27.0563
27.1619
27.2662
27.3693
27.4712
27.5718
27.6713
27.7696
27.8667
27.9627
28.0574
28.151
28.2434
28.3346
28.4247
28.5136
28.6014
28.688
28.7735
28.8579
28.9411
29.0232
29.1042
29.1841
29.2629
29.3406
29.4172
29.4928
29.5672
29.6406
29.713
29.7843
29.8545
29.9237
29.9919
30.059
30.1252
30.1903
30.2544
30.3175
30.3796
30.4407
30.5009
30.5601
30.6183
30.6756
30.7319
30.7873
30.8418
30.8953
30.9479
30.9996
31.0504
31.1003
31.1493
31.1974
31.2446
31.291
31.3365
31.3811
31.4249
31.4678
31.5099
31.5512
31.5917
31.6313
31.6701
31.7081
31.7453
31.7817
31.8174
31.8522
31.8863
31.9196
31.9521
31.9839
32.0149
32.0452
32.0748
32.1036
32.1316
32.159
32.1856
32.2115
32.2367
32.2612
32.285
32.3081
32.3305
32.3522
32.3732
32.3935
32.4132
32.4322
32.4505
32.4681
32.4851
32.5015
32.5172
32.5322
32.5466
32.5603
32.5734
32.5858
32.5976
32.6088
32.6193
32.6292
32.6385
32.6472
32.6552
32.6626
32.6694
32.6755
32.6811
32.686
32.6903
32.694
32.697
32.6995
32.7013
32.7026
32.7032
10.6567
10.6515
10.6411
10.6255
10.6049
10.5794
10.5491
10.5143
10.4752
10.4319
10.3847
10.3338
10.2797
10.2224
10.1623
10.0998
10.035
9.96827
9.89991
9.8302
9.75941
9.68781
9.61568
9.54327
9.47084
9.39863
9.32688
9.25582
9.18567
9.11663
9.04892
8.98271
8.9182
8.85556
8.79496
8.73656
8.6805
8.62694
8.576
8.52782
8.48251
8.4402
8.401
8.365
8.3323
8.30299
8.27716
8.25489
8.23623
8.22127
8.21006
8.20265
8.19909
8.19943
8.20369
8.21191
8.2241
8.24031
8.26052
8.28476
8.31303
8.34532
8.38164
8.42196
8.46628
8.51458
8.56683
8.623
8.68306
8.74698
8.81472
8.88624
8.96149
9.04042
9.12298
9.20912
9.29878
9.39191
9.48843
9.58829
9.69141
9.79774
9.90721
10.0197
10.1352
10.2537
10.3749
10.499
10.6257
10.755
10.8869
11.0212
11.1579
11.2969
11.4382
11.5815
11.7269
11.8743
12.0236
12.1747
12.3275
12.482
12.6381
12.7957
12.9547
13.1151
13.2768
13.4396
13.6036
13.7687
13.9347
14.1017
14.2695
14.4381
14.6074
14.7774
14.9479
15.119
15.2905
15.4624
15.6346
15.8072
15.9799
16.1528
16.3258
16.4989
16.672
16.845
17.018
17.1908
17.3634
17.5357
17.7078
17.8796
18.051
18.222
18.3925
18.5626
18.7321
18.9011
19.0695
19.2373
19.4044
19.5708
19.7365
19.9015
20.0657
20.2291
20.3916
20.5533
20.7142
20.8741
21.0331
21.1912
21.3483
21.5044
21.6596
21.8137
21.9667
22.1188
22.2697
22.4196
22.5684
22.7161
22.8627
23.0081
23.1524
23.2956
23.4376
23.5784
23.7181
23.8566