/*--------------------------------*- C++ -*----------------------------------*\
| =========                 |                                                 |
| \\      /  F ield         | OpenFOAM: The Open Source CFD Toolbox           |
|  \\    /   O peration     | Version:  2212                                  |
|   \\  /    A nd           | Website:  www.openfoam.com                      |
|    \\/     M anipulation  |                                                 |
\*---------------------------------------------------------------------------*/
FoamFile
{
    version     2.0;
    format      ascii;
    arch        "LSB;label=32;scalar=64";
    class       surfaceScalarField;
    location    "290";
    object      phi;
}
// * * * * * * * * * * * * * * * * * * * * * * * * * * * * * * * * * * * * * //

dimensions      [1 0 -1 0 0 0 0];

oriented        oriented;

internalField   nonuniform List<scalar> 
408640
(
-2118.82
2114.57
-4231.58
2111.36
-6332.76
2099.79
-8415.8
2081.66
-10474.3
2057.14
-12502.6
2026.88
-14495.4
1991.41
-16448.3
1951.52
-18357.7
1907.99
-20220.8
1861.66
-22035.6
1813.29
-23800.6
1763.58
-25515.2
1713.17
-27179.3
1662.61
-28793.1
1612.41
-30357.6
1563.01
-31873.7
1514.76
-33343.1
1467.94
-34767.2
1422.72
-36147.7
1379.23
-37486.6
1337.51
-38785.5
1297.53
-40046
1259.25
-41269.9
1222.57
-42458.5
1187.37
-43613.3
1153.55
-44735.6
1120.96
-45826.3
1089.49
-46886.5
1059.01
-47917.2
1029.4
-48918.9
1000.56
-49892.5
972.386
-50838.5
944.8
-51757.5
917.73
-52649.8
891.114
-53515.8
864.904
-54356.1
839.059
-55170.8
813.548
-55960.3
788.345
-56724.8
763.434
-57464.8
738.801
-58180.4
714.437
-58871.8
690.336
-59539.4
666.494
-60183.4
642.909
-60804.1
619.579
-61401.7
596.504
-61976.5
573.685
-62528.7
551.122
-63058.6
528.815
-63566.4
506.767
-64052.4
484.978
-64516.9
463.451
-64960.1
442.186
-65382.3
421.186
-65783.8
400.452
-66164.8
379.986
-66525.6
359.79
-66866.4
339.866
-67187.6
320.215
-67489.4
300.839
-67772.1
281.74
-68036
262.92
-68281.3
244.381
-68508.4
226.123
-68717.5
208.149
-68908.8
190.46
-69082.8
173.056
-69239.6
155.941
-69379.6
139.113
-69503.1
122.575
-69610.3
106.327
-69701.5
90.3702
-69777.1
74.7048
-69837.2
59.3314
-69882.3
44.2503
-69912.6
29.4615
-69928.3
14.9652
-69929.9
0.761151
-69917.5
-13.1509
-69891.5
-26.7714
-69852.2
-40.1009
-69799.8
-53.1403
-69734.7
-65.8902
-69657.1
-78.3519
-69567.3
-90.5265
-69465.6
-102.415
-69352.3
-114.02
-69227.6
-125.341
-69091.9
-136.382
-68945.4
-147.143
-68788.5
-157.628
-68621.3
-167.837
-68444.2
-177.773
-68257.4
-187.44
-68061.2
-196.838
-67855.8
-205.97
-67641.6
-214.84
-67418.7
-223.45
-67187.5
-231.803
-66948.1
-239.902
-66701
-247.749
-66446.2
-255.349
-66184
-262.704
-65914.7
-269.817
-65638.5
-276.692
-65355.7
-283.332
-65066.5
-289.741
-64771
-295.922
-64469.6
-301.879
-64162.5
-307.615
-63849.8
-313.134
-63531.8
-318.439
-63208.7
-323.535
-62880.7
-328.425
-62548
-333.112
-62210.8
-337.6
-61869.3
-341.894
-61523.7
-345.997
-61174.1
-349.912
-60820.9
-353.644
-60464
-357.195
-60103.8
-360.571
-59740.3
-363.775
-59373.8
-366.81
-59004.5
-369.68
-58632.4
-372.389
-58257.7
-374.941
-57880.6
-377.339
-57501.3
-379.587
-57119.9
-381.688
-56736.5
-383.647
-56351.2
-385.466
-55964.3
-387.15
-55575.8
-388.701
-55185.9
-390.123
-54794.7
-391.42
-54402.2
-392.594
-54008.8
-393.65
-53614.3
-394.591
-53219
-395.419
-52823
-396.139
-52426.4
-396.752
-52029.3
-397.263
-51631.7
-397.675
-51233.8
-397.989
-50835.7
-398.21
-50437.4
-398.341
-50039.1
-398.383
-49640.8
-398.341
-49242.6
-398.216
-48844.6
-398.012
-48446.9
-397.731
-48049.6
-397.376
-47652.6
-396.949
-47256.2
-396.453
-46860.3
-395.89
-46465
-395.264
-46070.3
-394.575
-45676.5
-393.827
-45283.4
-393.022
-44891.2
-392.162
-44499.8
-391.249
-44109.5
-390.285
-43720.1
-389.273
-43331.8
-388.214
-42944.5
-387.111
-42558.4
-385.965
-42173.5
-384.779
-41789.8
-383.554
-41407.4
-382.291
-41026.2
-380.994
-40646.4
-379.662
-40267.9
-378.299
-39890.8
-376.906
-39515.1
-375.484
-39140.9
-374.035
-38768.1
-372.56
-38396.8
-371.061
-38027
-369.54
-37658.8
-367.997
-37292.1
-366.434
-36927
-364.853
-36563.4
-363.254
-36201.5
-361.639
-35841.2
-360.009
-35482.5
-358.366
-35125.5
-356.71
-34770.2
-355.042
-34416.5
-353.364
-34064.5
-351.676
-33714.1
-349.981
-33365.5
-348.277
-33018.6
-346.568
-32673.4
-344.853
-32329.9
-343.133
-31988.1
-341.409
-31648
-339.683
-31309.7
-337.954
-30973
-336.224
-30638.1
-334.494
-30305
-332.763
-29973.5
-331.034
-29643.8
-329.306
-29315.8
-327.58
-28989.5
-325.858
-28664.9
-324.138
-28342
-322.423
-28020.8
-320.712
-27701.3
-319.007
-27383.6
-317.307
-27067.5
-315.614
-26753
-313.927
-26440.3
-312.248
-26129.2
-310.577
-25819.8
-308.913
-25512
-307.258
-25205.9
-305.612
-24901.4
-303.976
-24598.5
-302.349
-24297.3
-300.733
-23997.6
-299.127
-23699.5
-297.532
-23403
-295.948
-23108.1
-294.376
-22814.7
-292.815
-22522.9
-291.267
-22232.6
-289.73
-21943.8
-288.207
-21656.6
-286.696
-21370.8
-285.199
-21086.5
-283.715
-20803.6
-282.244
-20522.3
-280.787
-20242.3
-279.345
-19963.8
-277.916
-19686.7
-276.502
-19411
-275.103
-19136.7
-273.718
-18863.7
-272.348
-18592.1
-270.993
-18321.8
-269.653
-18052.9
-268.329
-17785.2
-267.02
-17518.9
-265.727
-17253.8
-264.449
-16990
-263.187
-16727.4
-261.941
-16466
-260.712
-16205.9
-259.498
-15946.9
-258.3
-15689.2
-257.119
-15432.6
-255.954
-15177.1
-254.806
-14922.8
-253.674
-14669.6
-252.559
-14417.5
-251.46
-14166.4
-250.378
-13916.4
-249.313
-13667.5
-248.265
-13419.6
-247.233
-13172.7
-246.219
-12926.8
-245.221
-12681.9
-244.24
-12438
-243.277
-12195
-242.33
-11952.9
-241.401
-11711.7
-240.488
-11471.5
-239.593
-11232.1
-238.715
-10993.5
-237.854
-10755.8
-237.01
-10519
-236.183
-10282.9
-235.374
-10047.6
-234.582
-9813.15
-233.807
-9579.42
-233.049
-9346.42
-232.309
-9114.15
-231.586
-8882.58
-230.88
-8651.7
-230.191
-8421.49
-229.52
-8191.93
-228.866
-7963.01
-228.229
-7734.71
-227.609
-7507.01
-227.007
-7279.89
-226.422
-7053.34
-225.854
-6827.34
-225.304
-6601.88
-224.771
-6376.93
-224.255
-6152.48
-223.756
-5928.5
-223.275
-5705
-222.811
-5481.94
-222.364
-5259.31
-221.934
-5037.09
-221.522
-4815.26
-221.127
-4593.82
-220.749
-4372.73
-220.388
-4151.99
-220.045
-3931.57
-219.719
-3711.46
-219.41
-3491.65
-219.118
-3272.1
-218.843
-3052.82
-218.586
-2833.78
-218.346
-2614.95
-218.123
-2396.34
-217.918
-2177.91
-217.73
-1959.65
-217.559
-1741.55
-217.407
-1523.57
-217.272
-1305.72
-217.155
-1087.96
-217.057
-870.286
-216.978
-652.67
-216.918
-435.095
-216.876
-217.543
-216.852
-216.844
-2102.8
4215.96
-4200.92
4208.06
-6288.15
4185.64
-8358.18
4150.33
-10405.2
4102.81
-12423.8
4044.07
-14409
3975.2
-16356.5
3897.59
-18262.7
3812.74
-20124.7
3722.19
-21940.2
3627.39
-23707.8
3529.67
-25426.3
3430.26
-27095.4
3330.26
-28715.1
3230.67
-30285.9
3132.37
-31808.6
3036.08
-33284.5
2942.38
-34714.8
2851.69
-36101.2
2764.28
-37445.3
2680.27
-38748.8
2599.68
-40013.3
2522.43
-41240.4
2448.37
-42431.6
2377.31
-43588.4
2309.02
-44712
2243.27
-45803.5
2179.81
-46864.1
2118.4
-47894.8
2058.8
-48896.2
2000.8
-49869.2
1944.2
-50814.5
1888.83
-51732.5
1834.53
-52623.7
1781.19
-53488.7
1728.7
-54327.8
1676.95
-55141.3
1625.9
-55929.6
1575.48
-56692.9
1525.66
-57431.7
1476.4
-58146
1427.68
-58836.3
1379.49
-59502.8
1331.83
-60145.6
1284.68
-60765.2
1238.04
-61361.7
1191.91
-61935.4
1146.3
-62486.5
1101.19
-63015.4
1056.6
-63522.2
1012.53
-64007.3
968.976
-64470.8
925.943
-64913.1
883.436
-65334.4
841.457
-65734.9
800.011
-66115.1
759.1
-66475
718.729
-66815
678.901
-67135.4
639.62
-67436.4
600.889
-67718.3
562.712
-67981.5
525.092
-68226.1
488.033
-68452.4
451.537
-68660.8
415.609
-68851.5
380.249
-69024.8
345.462
-69181
311.249
-69320.4
277.614
-69443.2
244.556
-69549.9
212.079
-69640.5
180.184
-69715.5
148.872
-69775.2
118.144
-69819.8
87.9997
-69849.6
58.4404
-69864.9
29.4659
-69866
1.0758
-69853.2
-26.7304
-69826.8
-53.9537
-69787
-80.5952
-69734.3
-106.656
-69668.8
-132.139
-69590.8
-157.045
-69500.7
-181.377
-69398.7
-205.138
-69285.1
-228.33
-69160.2
-250.956
-69024.2
-273.021
-68877.5
-294.528
-68720.3
-315.48
-68552.9
-335.883
-68375.6
-355.74
-68188.6
-375.056
-67992.2
-393.837
-67786.7
-412.087
-67572.4
-429.811
-67349.4
-447.016
-67118.1
-463.707
-66878.6
-479.89
-66631.4
-495.571
-66376.5
-510.756
-66114.3
-525.452
-65845
-539.664
-65568.8
-553.401
-65286
-566.668
-64996.7
-579.473
-64701.3
-591.822
-64399.9
-603.723
-64092.8
-615.183
-63780.2
-626.208
-63462.3
-636.807
-63139.3
-646.986
-62811.4
-656.754
-62478.8
-666.117
-62141.7
-675.083
-61800.3
-683.66
-61454.8
-691.854
-61105.4
-699.674
-60752.3
-707.127
-60395.6
-714.221
-60035.6
-720.963
-59672.3
-727.361
-59306
-733.422
-58936.9
-739.153
-58565
-744.563
-58190.6
-749.658
-57813.7
-754.446
-57434.6
-758.933
-57053.4
-763.128
-56670.3
-767.038
-56285.3
-770.669
-55898.7
-774.028
-55510.5
-777.123
-55120.8
-779.961
-54729.9
-782.548
-54337.8
-784.891
-53944.6
-786.997
-53550.4
-788.872
-53155.5
-790.523
-52759.8
-791.957
-52363.5
-793.178
-51966.7
-794.195
-51569.5
-795.013
-51171.9
-795.637
-50774.1
-796.075
-50376.2
-796.331
-49978.2
-796.412
-49580.3
-796.323
-49182.5
-796.069
-48784.9
-795.657
-48387.5
-795.092
-47990.5
-794.378
-47594
-793.521
-47197.9
-792.526
-46802.4
-791.398
-46407.5
-790.142
-46013.2
-788.762
-45619.7
-787.264
-45227.1
-785.651
-44835.2
-783.929
-44444.3
-782.101
-44054.3
-780.172
-43665.3
-778.146
-43277.4
-776.027
-42890.6
-773.819
-42504.9
-771.526
-42120.4
-769.151
-41737.1
-766.699
-41355.1
-764.173
-40974.3
-761.577
-40594.9
-758.914
-40216.8
-756.187
-39840.1
-753.399
-39464.9
-750.555
-39091
-747.656
-38718.7
-744.706
-38347.8
-741.708
-37978.4
-738.665
-37610.6
-735.579
-37244.3
-732.454
-36879.6
-729.291
-36516.5
-726.093
-36155
-722.863
-35795.1
-719.604
-35436.9
-716.317
-35080.3
-713.005
-34725.3
-709.67
-34372
-706.315
-34020.4
-702.94
-33670.5
-699.549
-33322.3
-696.143
-32975.8
-692.725
-32631
-689.295
-32287.9
-685.856
-31946.5
-682.41
-31606.9
-678.958
-31268.9
-675.501
-30932.7
-672.043
-30598.2
-668.583
-30265.4
-665.123
-29934.4
-661.665
-29605.1
-658.21
-29277.4
-654.76
-28951.5
-651.315
-28627.3
-647.878
-28304.9
-644.449
-27984.1
-641.029
-27665
-637.619
-27347.6
-634.221
-27031.9
-630.836
-26717.9
-627.464
-26405.5
-624.106
-26094.9
-620.764
-25785.8
-617.439
-25478.4
-614.131
-25172.7
-610.84
-24868.6
-607.569
-24566.1
-604.317
-24265.2
-601.085
-23965.9
-597.875
-23668.2
-594.686
-23372.1
-591.52
-23077.6
-588.376
-22784.6
-585.257
-22493.1
-582.161
-22203.2
-579.09
-21914.8
-576.045
-21627.9
-573.025
-21342.5
-570.031
-21058.5
-567.064
-20776.1
-564.125
-20495
-561.213
-20215.5
-558.329
-19937.3
-555.473
-19660.6
-552.646
-19385.2
-549.849
-19111.2
-547.08
-18838.6
-544.342
-18567.4
-541.633
-18297.4
-538.955
-18028.8
-536.308
-17761.5
-533.692
-17495.5
-531.106
-17230.8
-528.553
-16967.3
-526.03
-16705.1
-523.54
-16444.1
-521.082
-16184.3
-518.655
-15925.7
-516.262
-15668.2
-513.901
-15412
-511.572
-15156.9
-509.277
-14902.9
-507.014
-14650
-504.785
-14398.2
-502.589
-14147.5
-500.426
-13897.8
-498.297
-13649.2
-496.202
-13401.7
-494.14
-13155.1
-492.112
-12909.5
-490.117
-12665
-488.157
-12421.3
-486.231
-12178.6
-484.339
-11936.9
-482.481
-11696.1
-480.657
-11456.1
-478.868
-11217
-477.112
-10978.8
-475.391
-10741.4
-473.705
-10504.9
-472.052
-10269.1
-470.435
-10034.2
-468.851
-9800
-467.302
-9566.58
-465.788
-9333.89
-464.308
-9101.93
-462.862
-8870.67
-461.451
-8640.1
-460.075
-8410.19
-458.733
-8180.94
-457.426
-7952.33
-456.153
-7724.33
-454.915
-7496.94
-453.711
-7270.12
-452.542
-7043.88
-451.407
-6818.18
-450.307
-6593.02
-449.241
-6368.37
-448.21
-6144.22
-447.213
-5920.55
-446.251
-5697.34
-445.324
-5474.58
-444.43
-5252.25
-443.572
-5030.32
-442.747
-4808.8
-441.958
-4587.65
-441.202
-4366.86
-440.481
-4146.41
-439.795
-3926.29
-439.143
-3706.48
-438.525
-3486.96
-437.942
-3267.71
-437.393
-3048.72
-436.879
-2829.97
-436.399
-2611.44
-435.953
-2393.12
-435.543
-2174.98
-435.167
-1957.02
-434.826
-1739.21
-434.521
-1521.53
-434.252
-1303.97
-434.019
-1086.51
-433.823
-869.121
-433.664
-651.797
-433.543
-434.516
-433.46
-217.256
-433.413
-433.403
-2084.2
6298.76
-4163.89
6286.37
-6233.52
6253.9
-8287.36
6202.79
-10320.1
6134.1
-12326.5
6049.13
-14302.1
5949.38
-16242.7
5836.75
-18144.8
5713.33
-20005.3
5581.26
-21822
5442.55
-23592.9
5299.11
-25316.7
5152.67
-26992.8
5004.84
-28620.7
4857.09
-30200.5
4710.73
-31732.7
4566.87
-33218.2
4426.43
-34658
4290.1
-36053.4
4158.33
-37405.9
4031.39
-38716.9
3909.39
-39988.1
3792.28
-41220.9
3679.91
-42416.9
3572.03
-43577.6
3468.36
-44704.1
3368.57
-45797.9
3272.33
-46860
3179.28
-47891.5
3089.07
-48893.3
3001.39
-49866.2
2915.92
-50811
2832.42
-51728.3
2750.63
-52618.7
2670.35
-53482.5
2591.41
-54320.4
2513.66
-55132.7
2436.99
-55919.6
2361.3
-56681.7
2286.54
-57419
2212.64
-58132.1
2139.57
-58821
2067.31
-59486.1
1995.83
-60127.7
1925.13
-60745.9
1855.21
-61341.2
1786.05
-61913.6
1717.66
-62463.5
1650.04
-62991.2
1583.19
-63496.8
1517.11
-63980.7
1451.81
-64443.1
1387.29
-64884.2
1323.56
-65304.4
1260.63
-65703.9
1198.49
-66083
1137.16
-66441.9
1076.63
-66780.9
1016.92
-67100.3
958.026
-67400.3
899.959
-67681.3
842.723
-67943.5
786.322
-68187.1
730.762
-68412.6
676.047
-68620.1
622.182
-68809.9
569.171
-68982.4
517.018
-69137.7
465.727
-69276.3
415.3
-69398.4
365.742
-69504.2
317.054
-69594.1
269.238
-69668.4
222.297
-69727.3
176.231
-69771.2
131.042
-69800.3
86.7303
-69814.9
43.2951
-69815.4
0.736573
-69801.9
-40.9463
-69774.9
-81.7548
-69734.6
-121.691
-69681.2
-160.756
-69615.2
-198.954
-69536.7
-236.287
-69446
-272.759
-69343.5
-308.374
-69229.4
-343.136
-69104
-377.051
-68967.6
-410.122
-68820.4
-442.357
-68662.8
-473.76
-68495
-504.339
-68317.3
-534.1
-68129.9
-563.05
-67933.2
-591.196
-67727.3
-618.547
-67512.6
-645.109
-67289.3
-670.893
-67057.7
-695.905
-66818
-720.156
-66570.5
-743.654
-66315.4
-766.409
-66053
-788.429
-65783.4
-809.726
-65507
-830.309
-65224
-850.187
-64934.6
-869.373
-64639
-887.875
-64337.5
-905.705
-64030.3
-922.874
-63717.6
-939.391
-63399.6
-955.269
-63076.5
-970.518
-62748.5
-985.15
-62415.8
-999.175
-62078.7
-1012.6
-61737.3
-1025.45
-61391.8
-1037.72
-61042.4
-1049.44
-60689.3
-1060.6
-60332.7
-1071.22
-59972.7
-1081.32
-59609.4
-1090.9
-59243.2
-1099.97
-58874.1
-1108.55
-58502.3
-1116.65
-58128
-1124.28
-57751.3
-1131.45
-57372.3
-1138.16
-56991.2
-1144.44
-56608.2
-1150.29
-56223.4
-1155.72
-55836.9
-1160.75
-55448.8
-1165.38
-55059.4
-1169.62
-54668.6
-1173.49
-54276.7
-1177
-53883.7
-1180.14
-53489.8
-1182.94
-53095.1
-1185.41
-52699.6
-1187.55
-52303.5
-1189.37
-51906.9
-1190.89
-51510
-1192.1
-51112.7
-1193.03
-50715.1
-1193.68
-50317.5
-1194.05
-49919.8
-1194.17
-49522.1
-1194.02
-49124.6
-1193.64
-48727.3
-1193.01
-48330.3
-1192.16
-47933.6
-1191.08
-47537.3
-1189.79
-47141.5
-1188.29
-46746.3
-1186.59
-46351.7
-1184.7
-45957.8
-1182.62
-45564.7
-1180.37
-45172.3
-1177.95
-44780.8
-1175.36
-44390.2
-1172.61
-44000.6
-1169.71
-43612
-1166.67
-43224.4
-1163.49
-42837.9
-1160.17
-42452.6
-1156.73
-42068.5
-1153.16
-41685.5
-1149.48
-41303.9
-1145.69
-40923.5
-1141.79
-40544.4
-1137.8
-40166.7
-1133.7
-39790.4
-1129.52
-39415.5
-1125.25
-39042.1
-1120.9
-38670.1
-1116.47
-38299.6
-1111.97
-37930.6
-1107.41
-37563.2
-1102.78
-37197.3
-1098.09
-36832.9
-1093.34
-36470.2
-1088.55
-36109.1
-1083.7
-35749.6
-1078.81
-35391.7
-1073.88
-35035.5
-1068.91
-34681
-1063.91
-34328.1
-1058.88
-33976.9
-1053.81
-33627.4
-1048.73
-33279.5
-1043.62
-32933.4
-1038.49
-32589
-1033.35
-32246.3
-1028.19
-31905.3
-1023.02
-31566
-1017.84
-31228.5
-1012.66
-30892.7
-1007.47
-30558.6
-1002.28
-30226.2
-997.093
-29895.5
-991.907
-29566.6
-986.726
-29239.3
-981.552
-28913.8
-976.386
-28590
-971.231
-28267.9
-966.088
-27947.5
-960.959
-27628.8
-955.847
-27311.8
-950.751
-26996.5
-945.674
-26682.9
-940.618
-26370.9
-935.583
-26060.6
-930.572
-25751.9
-925.585
-25444.9
-920.624
-25139.6
-915.691
-24835.8
-910.785
-24533.7
-905.909
-24233.2
-901.063
-23934.3
-896.249
-23637
-891.468
-23341.2
-886.72
-23047
-882.007
-22754.4
-877.329
-22463.3
-872.688
-22173.8
-868.083
-21885.7
-863.517
-21599.2
-858.989
-21314.1
-854.501
-21030.6
-850.052
-20748.5
-845.645
-20467.8
-841.279
-20188.6
-836.955
-19910.8
-832.673
-19634.4
-828.435
-19359.4
-824.24
-19085.8
-820.09
-18813.5
-815.984
-18542.6
-811.923
-18273
-807.908
-18004.8
-803.939
-17737.8
-800.016
-17472.2
-796.14
-17207.8
-792.311
-16944.7
-788.53
-16682.8
-784.796
-16422.1
-781.11
-16162.6
-777.473
-15904.4
-773.884
-15647.3
-770.344
-15391.3
-766.853
-15136.6
-763.412
-14882.9
-760.02
-14630.3
-756.678
-14378.9
-753.385
-14128.5
-750.143
-13879.2
-746.951
-13630.9
-743.81
-13383.7
-740.718
-13137.5
-737.678
-12892.2
-734.688
-12647.9
-731.75
-12404.6
-728.862
-12162.3
-726.025
-11920.9
-723.24
-11680.3
-720.506
-11440.7
-717.823
-11201.9
-715.191
-10964
-712.611
-10727
-710.083
-10490.7
-707.606
-10255.3
-705.18
-10020.7
-702.807
-9786.81
-700.484
-9553.7
-698.214
-9321.32
-695.995
-9089.67
-693.828
-8858.72
-691.713
-8628.46
-689.65
-8398.86
-687.638
-8169.92
-685.678
-7941.61
-683.77
-7713.92
-681.914
-7486.83
-680.109
-7260.32
-678.356
-7034.38
-676.655
-6808.99
-675.006
-6584.13
-673.408
-6359.78
-671.863
-6135.93
-670.369
-5912.56
-668.926
-5689.65
-667.536
-5467.19
-666.197
-5245.16
-664.909
-5023.54
-663.674
-4802.31
-662.49
-4581.46
-661.357
-4360.96
-660.277
-4140.82
-659.247
-3920.99
-658.27
-3701.48
-657.344
-3482.25
-656.47
-3263.3
-655.647
-3044.6
-654.876
-2826.15
-654.156
-2607.92
-653.489
-2389.89
-652.873
-2172.05
-652.309
-1954.38
-651.799
-1736.86
-651.341
-1519.48
-650.937
-1302.21
-650.588
-1085.04
-650.294
-867.949
-650.057
-650.919
-649.875
-433.93
-649.751
-216.962
-649.682
-649.667
-2059.73
8357.08
-4115.41
8340.66
-6162.09
8299.18
-8194.77
8234.06
-10208.7
8146.6
-12199.3
8038.27
-14162.3
7910.91
-16093.8
7766.8
-17990.4
7608.43
-19849
7438.39
-21667.1
7259.15
-23442.5
7073.06
-25173.7
6882.29
-26859.2
6688.88
-28498.4
6494.75
-30090.7
6301.62
-31636.3
6110.99
-33135.4
5924.15
-34588.8
5742.07
-35997.4
5565.49
-37362.3
5394.89
-38684.8
5230.51
-39966.2
5072.4
-41208.1
4920.46
-42411.9
4774.49
-43579
4634.17
-44710.8
4499.14
-45808.7
4368.97
-46873.9
4243.24
-47907.6
4121.51
-48910.8
4003.35
-49884.4
3888.36
-50829.4
3776.16
-51746.3
3666.42
-52636
3558.84
-53499
3453.18
-54335.7
3349.22
-55146.6
3246.78
-55932.2
3145.72
-56692.8
3045.94
-57428.6
2947.36
-58140.1
2849.92
-58827.5
2753.57
-59491.1
2658.28
-60131.1
2564.04
-60747.8
2470.84
-61341.5
2378.67
-61912.4
2287.52
-62460.9
2197.4
-62987.1
2108.31
-63491.3
2020.25
-63973.7
1933.22
-64434.7
1847.24
-64874.5
1762.31
-65293.3
1678.44
-65691.5
1595.63
-66069.2
1513.89
-66426.8
1433.23
-66764.5
1353.65
-67082.6
1275.16
-67381.4
1197.78
-67661.2
1121.5
-67922.1
1046.34
-68164.6
972.293
-68388.8
899.376
-68595.2
827.592
-68783.9
756.947
-68955.2
687.446
-69109.5
619.093
-69246.9
551.894
-69367.9
485.852
-69472.7
420.97
-69561.6
357.252
-69634.8
294.699
-69692.7
233.314
-69735.6
173.097
-69763.7
114.05
-69777.4
56.1728
-69776.9
-0.536039
-69762.6
-56.0772
-69734.7
-110.452
-69693.5
-163.664
-69639.3
-215.715
-69572.3
-266.609
-69493
-316.351
-69401.6
-364.944
-69298.2
-412.394
-69183.4
-458.708
-69057.2
-503.891
-68920.1
-547.95
-68772.2
-590.893
-68613.9
-632.728
-68445.5
-673.464
-68267.1
-713.109
-68079.1
-751.673
-67881.7
-789.165
-67675.3
-825.597
-67460
-860.978
-67236.2
-895.321
-67004
-928.636
-66763.8
-960.935
-66515.8
-992.231
-66260.2
-1022.54
-65997.3
-1051.86
-65727.4
-1080.22
-65450.6
-1107.63
-65167.2
-1134.1
-64877.4
-1159.65
-64581.4
-1184.29
-64279.6
-1208.03
-63972
-1230.89
-63659
-1252.88
-63340.7
-1274.02
-63017.3
-1294.32
-62689.1
-1313.8
-62356.2
-1332.47
-62018.9
-1350.34
-61677.3
-1367.44
-61331.6
-1383.78
-60982
-1399.37
-60628.8
-1414.22
-60272
-1428.36
-59911.8
-1441.79
-59548.5
-1454.54
-59182.2
-1466.61
-58813
-1478.03
-58441.2
-1488.8
-58066.8
-1498.95
-57690
-1508.48
-57311.1
-1517.41
-56930
-1525.76
-56547
-1533.53
-56162.2
-1540.76
-55775.7
-1547.43
-55387.7
-1553.59
-54998.3
-1559.22
-54607.6
-1564.36
-54215.8
-1569.01
-53822.9
-1573.19
-53429.1
-1576.91
-53034.5
-1580.18
-52639.2
-1583.01
-52243.3
-1585.42
-51846.8
-1587.43
-51450
-1589.03
-51052.9
-1590.25
-50655.5
-1591.1
-50258.1
-1591.59
-49860.6
-1591.72
-49463.1
-1591.52
-49065.8
-1590.99
-48668.7
-1590.14
-48271.9
-1588.99
-47875.5
-1587.54
-47479.5
-1585.8
-47084
-1583.79
-46689
-1581.52
-46294.7
-1578.99
-45901.1
-1576.21
-45508.2
-1573.19
-45116.1
-1569.95
-44724.9
-1566.49
-44334.6
-1562.82
-43945.3
-1558.95
-43557
-1554.88
-43169.7
-1550.63
-42783.6
-1546.2
-42398.6
-1541.6
-42014.8
-1536.84
-41632.2
-1531.93
-41250.8
-1526.87
-40870.8
-1521.67
-40492.1
-1516.33
-40114.7
-1510.87
-39738.8
-1505.29
-39364.2
-1499.59
-38991.1
-1493.78
-38619.5
-1487.88
-38249.4
-1481.88
-37880.8
-1475.78
-37513.7
-1469.61
-37148.2
-1463.35
-36784.2
-1457.02
-36421.9
-1450.62
-36061.1
-1444.16
-35702
-1437.64
-35344.6
-1431.06
-34988.7
-1424.43
-34634.6
-1417.76
-34282.1
-1411.05
-33931.2
-1404.3
-33582.1
-1397.52
-33234.7
-1390.7
-32888.9
-1383.87
-32544.9
-1377.01
-32202.6
-1370.13
-31862
-1363.24
-31523.1
-1356.33
-31186
-1349.42
-30850.6
-1342.5
-30516.8
-1335.59
-30184.9
-1328.67
-29854.6
-1321.75
-29526
-1314.85
-29199.2
-1307.95
-28874.1
-1301.06
-28550.7
-1294.19
-28229
-1287.33
-27909
-1280.5
-27590.7
-1273.68
-27274.1
-1266.89
-26959.1
-1260.12
-26645.9
-1253.38
-26334.3
-1246.67
-26024.4
-1239.99
-25716.1
-1233.34
-25409.5
-1226.73
-25104.6
-1220.15
-24801.2
-1213.61
-24499.5
-1207.11
-24199.4
-1200.65
-23900.8
-1194.24
-23603.9
-1187.86
-23308.5
-1181.54
-23014.7
-1175.25
-22722.5
-1169.02
-22431.8
-1162.83
-22142.6
-1156.69
-21855
-1150.61
-21568.8
-1144.57
-21284.1
-1138.59
-21000.9
-1132.66
-20719.2
-1126.79
-20438.9
-1120.97
-20160.1
-1115.21
-19882.7
-1109.5
-19606.6
-1103.85
-19332
-1098.26
-19058.8
-1092.73
-18786.9
-1087.26
-18516.3
-1081.84
-18247.1
-1076.49
-17979.3
-1071.2
-17712.7
-1065.98
-17447.4
-1060.81
-17183.3
-1055.71
-16920.6
-1050.67
-16659
-1045.69
-16398.7
-1040.78
-16139.6
-1035.93
-15881.7
-1031.15
-15625
-1026.43
-15369.4
-1021.78
-15115
-1017.19
-14861.7
-1012.67
-14609.5
-1008.22
-14358.4
-1003.83
-14108.4
-999.511
-13859.4
-995.257
-13611.5
-991.07
-13364.6
-986.951
-13118.7
-982.899
-12873.8
-978.915
-12629.9
-974.999
-12386.9
-971.151
-12144.9
-967.371
-11903.8
-963.659
-11663.6
-960.015
-11424.3
-956.44
-11185.9
-952.933
-10948.3
-949.495
-10711.6
-946.125
-10475.7
-942.825
-10240.6
-939.593
-10006.3
-936.429
-9772.77
-933.335
-9539.99
-930.31
-9307.95
-927.353
-9076.63
-924.465
-8846.01
-921.647
-8616.07
-918.897
-8386.8
-916.216
-8158.19
-913.605
-7930.21
-911.062
-7702.84
-908.588
-7476.07
-906.184
-7249.89
-903.848
-7024.27
-901.581
-6799.2
-899.383
-6574.66
-897.255
-6350.64
-895.195
-6127.11
-893.204
-5904.06
-891.282
-5681.47
-889.429
-5459.33
-887.645
-5237.61
-885.929
-5016.31
-884.283
-4795.4
-882.705
-4574.86
-881.196
-4354.69
-879.756
-4134.86
-878.385
-3915.35
-877.082
-3696.15
-875.848
-3477.24
-874.683
-3258.6
-873.587
-3040.22
-872.559
-2822.08
-871.6
-2604.16
-870.71
-2386.45
-869.89
-2168.92
-869.139
-1951.56
-868.458
-1734.36
-867.848
-1517.29
-867.31
-1300.34
-866.845
-1083.48
-866.453
-866.702
-866.137
-649.985
-865.896
-433.308
-865.73
-216.654
-865.64
-865.623
-2035.54
10391.2
-4067.35
10371
-6091.17
10321.6
-8102.7
10244.1
-10097.7
10140.2
-12072.2
10011.2
-14022.2
9859.44
-15944.1
9687.26
-17834.7
9497.49
-19690.9
9293.02
-21509.9
9076.67
-23289.5
8851.11
-25027.6
8618.87
-26722.6
8382.37
-28373.3
8143.89
-29978.7
7905.54
-31538.5
7669.24
-33052.4
7436.6
-34520.7
7208.96
-35944
6987.35
-37323
6772.5
-38658.8
6564.87
-39952.4
6364.68
-41205.2
6171.96
-42418.6
5986.56
-43594
5808.23
-44732.7
5636.59
-45836.3
5471.22
-46905.9
5311.61
-47942.9
5157.25
-48948.4
5007.64
-49923.5
4862.26
-50869.2
4720.65
-51786.3
4582.36
-52675.7
4447.01
-53537.9
4314.24
-54373.6
4183.76
-55183.3
4055.33
-55967.5
3928.74
-56726.5
3803.83
-57460.8
3680.48
-58170.6
3558.6
-58856.3
3438.13
-59518.1
3319.02
-60156.4
3201.24
-60771.5
3084.77
-61363.5
2969.59
-61932.7
2855.7
-62479.5
2743.1
-63004
2631.78
-63506.6
2521.75
-63987.4
2413.02
-64446.8
2305.6
-64885
2199.48
-65302.3
2094.69
-65698.9
1991.22
-66075.1
1889.09
-66431.2
1788.31
-66767.4
1688.88
-67084
1590.82
-67381.3
1494.13
-67659.6
1398.83
-67919.1
1304.92
-68160.2
1212.4
-68383.1
1121.3
-68588
1031.61
-68775.3
943.35
-68945.3
856.516
-69098.2
771.117
-69234.3
687.161
-69354
604.651
-69457.5
523.591
-69545.1
443.986
-69617.1
365.839
-69673.7
289.151
-69715.4
213.924
-69742.3
140.159
-69754.8
67.8561
-69753.1
-2.9854
-69737.6
-72.367
-69708.6
-140.291
-69666.2
-206.76
-69610.9
-271.779
-69542.9
-335.35
-69462.5
-397.481
-69370
-458.176
-69265.7
-517.442
-69149.8
-575.287
-69022.7
-631.718
-68884.6
-686.745
-68735.8
-740.376
-68576.5
-792.623
-68407.2
-843.494
-68227.9
-893.003
-68039.1
-941.159
-67840.9
-987.977
-67633.6
-1033.47
-67417.5
-1077.65
-67192.9
-1120.53
-66960
-1162.12
-66719.1
-1202.45
-66470.3
-1241.52
-66214.1
-1279.36
-65950.5
-1315.97
-65679.9
-1351.37
-65402.4
-1385.59
-65118.4
-1418.63
-64828
-1450.52
-64531.5
-1481.27
-64229.1
-1510.9
-63921.1
-1539.43
-63607.5
-1566.87
-63288.7
-1593.25
-62964.9
-1618.58
-62636.2
-1642.89
-62302.9
-1666.18
-61965.2
-1688.48
-61623.2
-1709.82
-61277.2
-1730.19
-60927.3
-1749.64
-60573.7
-1768.16
-60216.6
-1785.8
-59856.2
-1802.55
-59492.6
-1818.44
-59126
-1833.5
-58756.6
-1847.73
-58384.6
-1861.16
-58010
-1873.8
-57633.1
-1885.68
-57253.9
-1896.81
-56872.7
-1907.21
-56489.6
-1916.9
-56104.7
-1925.89
-55718.1
-1934.21
-55330.1
-1941.87
-54940.6
-1948.89
-54549.9
-1955.28
-54158
-1961.06
-53765.1
-1966.25
-53371.3
-1970.87
-52976.7
-1974.93
-52581.4
-1978.45
-52185.5
-1981.44
-51789.1
-1983.91
-51392.4
-1985.9
-50995.3
-1987.4
-50598
-1988.43
-50200.7
-1989.02
-49803.3
-1989.16
-49406
-1988.89
-49008.8
-1988.2
-48611.9
-1987.12
-48215.2
-1985.66
-47818.9
-1983.83
-47423.1
-1981.64
-47027.7
-1979.11
-46633
-1976.25
-46238.9
-1973.07
-45845.5
-1969.58
-45452.8
-1965.8
-45061
-1961.73
-44670
-1957.39
-44279.9
-1952.79
-43890.9
-1947.94
-43502.8
-1942.84
-43115.8
-1937.51
-42729.9
-1931.97
-42345.2
-1926.21
-41961.7
-1920.25
-41579.4
-1914.09
-41198.3
-1907.75
-40818.6
-1901.24
-40440.2
-1894.56
-40063.1
-1887.73
-39687.5
-1880.74
-39313.3
-1873.61
-38940.5
-1866.35
-38569.2
-1858.96
-38199.4
-1851.45
-37831.1
-1843.83
-37464.4
-1836.1
-37099.2
-1828.27
-36735.6
-1820.35
-36373.6
-1812.35
-36013.2
-1804.27
-35654.5
-1796.11
-35297.3
-1787.88
-34941.9
-1779.6
-34588.1
-1771.25
-34235.9
-1762.86
-33885.5
-1754.42
-33536.7
-1745.94
-33189.6
-1737.42
-32844.3
-1728.87
-32500.6
-1720.29
-32158.7
-1711.69
-31818.5
-1703.08
-31480
-1694.45
-31143.2
-1685.8
-30808.2
-1677.16
-30474.8
-1668.51
-30143.2
-1659.86
-29813.3
-1651.22
-29485.2
-1642.58
-29158.7
-1633.96
-28834
-1625.35
-28511
-1616.76
-28189.7
-1608.19
-27870.1
-1599.65
-27552.1
-1591.13
-27235.9
-1582.64
-26921.4
-1574.18
-26608.5
-1565.75
-26297.3
-1557.36
-25987.8
-1549.02
-25679.9
-1540.71
-25373.7
-1532.44
-25069.1
-1524.22
-24766.2
-1516.05
-24464.8
-1507.93
-24165.1
-1499.86
-23867
-1491.84
-23570.4
-1483.87
-23275.4
-1475.97
-22982
-1468.11
-22690.2
-1460.32
-22399.8
-1452.59
-22111
-1444.92
-21823.8
-1437.32
-21538
-1429.78
-21253.7
-1422.3
-20970.9
-1414.89
-20689.5
-1407.55
-20409.6
-1400.28
-20131.2
-1393.08
-19854.1
-1385.95
-19578.5
-1378.89
-19304.2
-1371.91
-19031.3
-1364.99
-18759.8
-1358.16
-18489.7
-1351.39
-18220.8
-1344.71
-17953.3
-1338.1
-17687.1
-1331.57
-17422.2
-1325.11
-17158.5
-1318.74
-16896.1
-1312.44
-16634.9
-1306.22
-16375
-1300.09
-16116.3
-1294.03
-15858.7
-1288.05
-15602.3
-1282.16
-15347.1
-1276.35
-15093
-1270.62
-14840.1
-1264.97
-14588.3
-1259.4
-14337.5
-1253.92
-14087.8
-1248.52
-13839.2
-1243.21
-13591.7
-1237.98
-13345.1
-1232.83
-13099.6
-1227.77
-12855
-1222.79
-12611.5
-1217.9
-12368.8
-1213.09
-12127.2
-1208.37
-11886.4
-1203.73
-11646.6
-1199.18
-11407.6
-1194.71
-11169.6
-1190.33
-10932.3
-1186.04
-10696
-1181.83
-10460.4
-1177.7
-10225.6
-1173.67
-9991.68
-1169.71
-9758.48
-1165.85
-9526.04
-1162.07
-9294.33
-1158.37
-9063.34
-1154.77
-8833.05
-1151.25
-8603.45
-1147.81
-8374.52
-1144.46
-8146.24
-1141.2
-7918.59
-1138.02
-7691.55
-1134.93
-7465.12
-1131.93
-7239.26
-1129.01
-7013.97
-1126.18
-6789.23
-1123.43
-6565.02
-1120.77
-6341.32
-1118.2
-6118.12
-1115.71
-5895.4
-1113.31
-5673.13
-1111
-5451.32
-1108.77
-5229.93
-1106.62
-5008.95
-1104.57
-4788.36
-1102.6
-4568.15
-1100.71
-4348.3
-1098.91
-4128.78
-1097.2
-3909.6
-1095.57
-3690.72
-1094.03
-3472.13
-1092.58
-3253.81
-1091.21
-3035.76
-1089.92
-2817.94
-1088.72
-2600.34
-1087.61
-2382.94
-1086.59
-2165.73
-1085.65
-1948.7
-1084.8
-1731.81
-1084.04
-1515.06
-1083.36
-1298.43
-1082.78
-1081.89
-1082.29
-865.429
-1081.9
-649.029
-1081.6
-432.671
-1081.39
-216.333
-1081.28
-1081.26
-2009.24
12399
-4015.18
12375.5
-6014.23
12319.2
-8002.75
12231.2
-9977.12
12113
-11933.8
11966.4
-13869.3
11793.4
-15780.3
11596.8
-17663.7
11379.3
-19516.5
11144.2
-21335.9
10894.5
-23119.2
10632.9
-24864.4
10362.4
-26569.2
10085.7
-28232.2
9805.25
-29851.8
9523.64
-31427.2
9243.11
-32957.8
8965.62
-34443.2
8692.89
-35883.6
8426.26
-37279.3
8166.77
-38631
7915.16
-39939.6
7671.87
-41206.1
7437.11
-42431.8
7210.9
-43617.9
6993.07
-44766
6783.32
-45877.3
6581.24
-46953.3
6386.31
-47995.2
6198
-49004.6
6015.71
-49982.4
5838.86
-50929.8
5666.89
-51847.9
5499.25
-52737.6
5335.45
-53599.5
5175.03
-54434.5
5017.6
-55243.2
4862.83
-56026.1
4710.44
-56783.6
4560.2
-57516.2
4411.94
-58224.2
4265.53
-58908.1
4120.87
-59568.1
3977.89
-60204.4
3836.54
-60817.6
3696.78
-61407.6
3558.59
-61975
3421.96
-62519.8
3286.88
-63042.5
3153.35
-63543.2
3021.37
-64022.1
2890.95
-64479.7
2762.09
-64916
2634.81
-65331.5
2509.11
-65726.3
2385
-66100.7
2262.5
-66455
2141.61
-66789.4
2022.35
-67104.3
1904.72
-67399.9
1788.75
-67676.4
1674.43
-67934.2
1561.78
-68173.6
1450.82
-68394.8
1341.54
-68598
1233.96
-68783.7
1128.09
-68952
1023.94
-69103.3
921.511
-69237.8
820.812
-69355.9
721.849