/*--------------------------------*- C++ -*----------------------------------*\
| =========                 |                                                 |
| \\      /  F ield         | OpenFOAM: The Open Source CFD Toolbox           |
|  \\    /   O peration     | Version:  2212                                  |
|   \\  /    A nd           | Website:  www.openfoam.com                      |
|    \\/     M anipulation  |                                                 |
\*---------------------------------------------------------------------------*/
FoamFile
{
    version     2.0;
    format      ascii;
    arch        "LSB;label=32;scalar=64";
    class       surfaceScalarField;
    location    "320";
    object      phi;
}
// * * * * * * * * * * * * * * * * * * * * * * * * * * * * * * * * * * * * * //

dimensions      [1 0 -1 0 0 0 0];

oriented        oriented;

internalField   nonuniform List<scalar> 
408640
(
-2239.92
2236.76
-4471.29
2230.31
-6684.99
2212.65
-8871.72
2185.68
-11023
2150.2
-13131.5
2107.44
-15191.2
2058.65
-17197.6
2005.24
-19147.3
1948.62
-21038.5
1890.07
-22870.4
1830.76
-24643.2
1771.66
-26357.9
1713.58
-28016.1
1657.13
-29620
1602.79
-31171.9
1550.85
-32674.5
1501.5
-34130.3
1454.76
-35541.9
1410.61
-36911.8
1368.9
-38242.3
1329.47
-39535.4
1292.12
-40793
1256.64
-42016.8
1222.81
-43208.1
1190.42
-44368.4
1159.28
-45498.5
1129.22
-46599.5
1100.06
-47672.1
1071.69
-48717
1043.98
-49734.8
1016.82
-50725.8
990.149
-51690.6
963.89
-52629.5
937.996
-53542.8
912.425
-54430.9
887.151
-55293.9
862.15
-56132.2
837.408
-56946
812.914
-57735.5
788.66
-58501.1
764.643
-59242.8
740.859
-59961
717.306
-60655.8
693.983
-61327.6
670.889
-61976.4
648.026
-62602.7
625.392
-63206.5
602.99
-63788.2
580.82
-64347.9
558.884
-64885.9
537.181
-65402.4
515.715
-65897.7
494.487
-66372
473.497
-66825.6
452.749
-67258.7
432.244
-67671.4
411.983
-68064.2
391.968
-68437.2
372.202
-68790.7
352.686
-69124.9
333.422
-69440.1
314.412
-69736.5
295.658
-70014.4
277.161
-70274.1
258.924
-70515.8
240.948
-70739.8
223.235
-70946.3
205.785
-71135.7
188.601
-71308.1
171.685
-71463.9
155.036
-71603.3
138.657
-71726.5
122.548
-71834
106.71
-71925.8
91.144
-72002.4
75.851
-72063.9
60.8312
-72110.7
46.085
-72143
31.6127
-72161.1
17.4144
-72165.3
3.4902
-72155.8
-10.1602
-72132.9
-23.5369
-72097
-36.6405
-72048.2
-49.4714
-71986.8
-62.0304
-71913.1
-74.3182
-71827.4
-86.3358
-71730
-98.0844
-71621.1
-109.565
-71500.9
-120.779
-71369.8
-131.728
-71228
-142.414
-71075.8
-152.837
-70913.4
-163.001
-70741.1
-172.906
-70559.1
-182.556
-70367.8
-191.952
-70167.3
-201.095
-69957.9
-209.99
-69739.8
-218.638
-69513.4
-227.041
-69278.7
-235.202
-69036.2
-243.125
-68785.9
-250.81
-68528.2
-258.263
-68263.3
-265.484
-67991.3
-272.478
-67712.6
-279.247
-67427.4
-285.795
-67135.8
-292.124
-66838
-298.237
-66534.4
-304.139
-66225.1
-309.831
-65910.3
-315.318
-65590.2
-320.602
-65265
-325.688
-64934.9
-330.577
-64600.1
-335.275
-64260.8
-339.784
-63917.2
-344.107
-63569.4
-348.248
-63217.6
-352.211
-62862.1
-355.998
-62502.9
-359.614
-62140.3
-363.061
-61774.4
-366.344
-61405.4
-369.465
-61033.4
-372.428
-60658.6
-375.236
-60281.1
-377.894
-59901.1
-380.403
-59518.7
-382.768
-59134.1
-384.991
-58747.4
-387.077
-58358.8
-389.028
-57968.3
-390.847
-57576.2
-392.539
-57182.4
-394.105
-56787.3
-395.55
-56390.7
-396.876
-55993
-398.086
-55594.2
-399.184
-55194.3
-400.172
-54793.6
-401.054
-54392.1
-401.832
-53989.9
-402.509
-53587.1
-403.089
-53183.9
-403.573
-52780.2
-403.965
-52376.2
-404.268
-51972
-404.484
-51567.7
-404.616
-51163.3
-404.666
-50758.9
-404.638
-50354.7
-404.533
-49950.6
-404.353
-49546.7
-404.103
-49143.2
-403.783
-48740
-403.397
-48337.3
-402.946
-47935.1
-402.432
-47533.4
-401.859
-47132.4
-401.228
-46732.1
-400.541
-46332.5
-399.801
-45933.6
-399.009
-45535.7
-398.167
-45138.5
-397.278
-44742.4
-396.343
-44347.2
-395.364
-43953
-394.343
-43559.8
-393.282
-43167.8
-392.183
-42776.8
-391.046
-42387.1
-389.875
-41998.5
-388.67
-41611.2
-387.433
-41225.1
-386.166
-40840.3
-384.87
-40456.8
-383.547
-40074.7
-382.197
-39694
-380.823
-39314.6
-379.426
-38936.6
-378.008
-38560.1
-376.568
-38185
-375.11
-37811.4
-373.633
-37439.2
-372.14
-37068.6
-370.63
-36699.5
-369.107
-36331.9
-367.57
-35965.8
-366.02
-35601.3
-364.459
-35238.4
-362.888
-34877
-361.308
-34517.3
-359.719
-34159.1
-358.123
-33802.5
-356.52
-33447.5
-354.911
-33094
-353.298
-32742.3
-351.681
-32392.1
-350.06
-32043.5
-348.437
-31696.5
-346.812
-31351.2
-345.187
-31007.5
-343.561
-30665.4
-341.936
-30324.9
-340.311
-29986
-338.689
-29648.7
-337.069
-29313.1
-335.452
-28979
-333.838
-28646.5
-332.228
-28315.7
-330.624
-27986.4
-329.024
-27658.7
-327.43
-27332.6
-325.842
-27008
-324.261
-26685
-322.687
-26363.6
-321.12
-26043.7
-319.562
-25725.4
-318.012
-25408.6
-316.47
-25093.3
-314.938
-24779.5
-313.416
-24467.2
-311.903
-24156.5
-310.401
-23847.2
-308.909
-23539.3
-307.428
-23233
-305.958
-22928
-304.5
-22624.6
-303.053
-22322.5
-301.619
-22021.8
-300.196
-21722.6
-298.787
-21424.7
-297.39
-21128.2
-296.006
-20833.1
-294.636
-20539.3
-293.279
-20246.8
-291.936
-19955.7
-290.606
-19665.9
-289.291
-19377.3
-287.99
-19090.1
-286.703
-18804.1
-285.431
-18519.3
-284.173
-18235.8
-282.931
-17953.5
-281.704
-17672.4
-280.491
-17392.4
-279.294
-17113.7
-278.113
-16836.1
-276.947
-16559.6
-275.797
-16284.3
-274.662
-16010.1
-273.544
-15737
-272.441
-15464.9
-271.355
-15193.9
-270.285
-14924
-269.231
-14655.1
-268.193
-14387.2
-267.172
-14120.3
-266.167
-13854.3
-265.179
-13589.4
-264.207
-13325.3
-263.252
-13062.2
-262.314
-12800.1
-261.393
-12538.8
-260.488
-12278.4
-259.601
-12018.8
-258.73
-11760.1
-257.876
-11502.2
-257.04
-11245.2
-256.22
-10988.9
-255.418
-10733.4
-254.632
-10478.7
-253.864
-10224.7
-253.113
-9971.46
-252.38
-9718.91
-251.663
-9467.05
-250.964
-9215.87
-250.282
-8965.34
-249.618
-8715.46
-248.971
-8466.19
-248.341
-8217.54
-247.728
-7969.47
-247.133
-7721.97
-246.556
-7475.03
-245.995
-7228.63
-245.453
-6982.74
-244.927
-6737.36
-244.419
-6492.46
-243.929
-6248.03
-243.456
-6004.05
-243
-5760.5
-242.562
-5517.37
-242.142
-5274.64
-241.739
-5032.28
-241.353
-4790.3
-240.985
-4548.66
-240.635
-4307.34
-240.302
-4066.34
-239.986
-3825.64
-239.688
-3585.21
-239.408
-3345.04
-239.145
-3105.12
-238.9
-2865.42
-238.673
-2625.92
-238.463
-2386.62
-238.271
-2147.48
-238.097
-1908.51
-237.942
-1669.66
-237.804
-1430.94
-237.686
-1192.31
-237.586
-953.762
-237.505
-715.276
-237.443
-476.831
-237.401
-238.411
-237.376
-237.367
-2222.33
4458.03
-4437.34
4444.25
-6635.86
4410.13
-8809.05
4357.82
-10949
4289.14
-13048.9
4206.19
-15102.7
4111.37
-17105.9
4007.31
-19055
3896.65
-20948
3781.87
-22783.5
3665.19
-24561.5
3548.5
-26282.4
3433.39
-27947.5
3321.14
-29558.6
3212.71
-31117.6
3108.77
-32626.8
3009.72
-34088.8
2915.71
-35506
2826.7
-36880.6
2742.52
-38215
2662.87
-39511.2
2587.38
-40771.2
2515.66
-41996.7
2447.31
-43189.1
2381.92
-44349.9
2319.11
-45480.2
2258.54
-46580.9
2199.87
-47653
2142.83
-48697.1
2087.17
-49713.9
2032.69
-50703.8
1979.22
-51667.5
1926.61
-52605.1
1874.76
-53517.2
1823.59
-54403.9
1773.02
-55265.7
1723.01
-56102.7
1673.53
-56915.2
1624.56
-57703.5
1576.06
-58467.8
1528.05
-59208.3
1480.5
-59925.3
1433.42
-60618.9
1386.79
-61289.5
1340.63
-61937.3
1294.93
-62562.4
1249.68
-63165.2
1204.9
-63745.8
1160.58
-64304.5
1116.73
-64841.4
1073.35
-65357
1030.44
-65851.3
988.005
-66324.7
946.048
-66777.3
904.572
-67209.5
863.582
-67621.4
823.081
-68013.3
783.072
-68385.4
743.56
-68738.1
704.548
-69071.5
666.04
-69385.9
628.04
-69681.5
590.551
-69958.7
553.578
-70217.7
517.123
-70458.7
481.189
-70682
445.781
-70887.8
410.901
-71076.5
376.553
-71248.3
342.737
-71403.5
309.458
-71542.3
276.718
-71665
244.518
-71771.8
212.861
-71863.1
181.747
-71939.2
151.179
-72000.2
121.157
-72046.5
91.6827
-72078.3
62.7557
-72096
34.3766
-72099.7
6.54545
-72089.8
-20.738
-72066.6
-47.4744
-72030.2
-73.6645
-71981
-99.3095
-71919.3
-124.411
-71845.3
-148.97
-71759.3
-172.988
-71661.6
-196.469
-71552.3
-219.414
-71431.9
-241.826
-71300.6
-263.708
-71158.5
-285.063
-71006.1
-305.895
-70843.5
-326.207
-70671
-346.003
-70488.9
-365.286
-70297.4
-384.063
-70096.7
-402.336
-69887.2
-420.11
-69669
-437.391
-69442.4
-454.183
-69207.7
-470.492
-68965.1
-486.322
-68714.8
-501.68
-68457
-516.571
-68192
-531.001
-67920.1
-544.975
-67641.4
-558.501
-67356.1
-571.583
-67064.5
-584.228
-66766.8
-596.443
-66463.3
-608.233
-66154
-619.606
-65839.2
-630.568
-65519.2
-641.125
-65194.1
-651.285
-64864.1
-661.053
-64529.4
-670.437
-64190.3
-679.444
-63846.8
-688.08
-63499.1
-696.352
-63147.5
-704.267
-62792.1
-711.832
-62433.2
-719.054
-62070.7
-725.94
-61705
-732.496
-61336.2
-738.729
-60964.4
-744.647
-60589.8
-750.255
-60212.5
-755.561
-59832.8
-760.572
-59450.7
-765.293
-59066.3
-769.733
-58679.9
-773.896
-58291.5
-777.791
-57901.3
-781.423
-57509.4
-784.799
-57116
-787.925
-56721.1
-790.808
-56324.9
-793.454
-55927.4
-795.868
-55528.9
-798.058
-55129.4
-800.028
-54729
-801.786
-54327.8
-803.337
-53925.9
-804.687
-53523.5
-805.841
-53120.6
-806.805
-52717.3
-807.585
-52313.6
-808.186
-51909.8
-808.614
-51505.8
-808.873
-51101.8
-808.97
-50697.8
-808.909
-50293.9
-808.695
-49890.2
-808.333
-49486.7
-807.829
-49083.5
-807.186
-48680.7
-806.41
-48278.4
-805.505
-47876.6
-804.476
-47475.3
-803.327
-47074.7
-802.062
-46674.8
-800.686
-46275.5
-799.203
-45877.1
-797.617
-45479.5
-795.932
-45082.8
-794.152
-44687.1
-792.28
-44292.3
-790.321
-43898.5
-788.278
-43505.7
-786.154
-43114.1
-783.954
-42723.6
-781.68
-42334.2
-779.336
-41946.1
-776.925
-41559.2
-774.45
-41173.5
-771.915
-40789.1
-769.322
-40406.1
-766.675
-40024.4
-763.976
-39644
-761.228
-39265.1
-758.433
-38887.5
-755.595
-38511.4
-752.717
-38136.7
-749.799
-37763.5
-746.846
-37391.8
-743.859
-37021.6
-740.841
-36652.9
-737.793
-36285.8
-734.719
-35920.1
-731.62
-35556
-728.499
-35193.5
-725.357
-34832.6
-722.197
-34473.2
-719.019
-34115.4
-715.827
-33759.2
-712.622
-33404.7
-709.406
-33051.7
-706.18
-32700.3
-702.946
-32350.5
-699.705
-32002.4
-696.46
-31655.8
-693.212
-31310.9
-689.961
-30967.6
-686.711
-30625.9
-683.461
-30285.8
-680.213
-29947.3
-676.969
-29610.5
-673.73
-29275.2
-670.496
-28941.6
-667.27
-28609.5
-664.052
-28279
-660.844
-27950.2
-657.645
-27622.9
-654.458
-27297.1
-651.284
-26973
-648.123
-26650.4
-644.976
-26329.4
-641.844
-26009.9
-638.728
-25692
-635.629
-25375.5
-632.548
-25060.6
-629.484
-24747.3
-626.44
-24435.4
-623.416
-24125
-620.413
-23816.1
-617.43
-23508.6
-614.469
-23202.6
-611.531
-22898.1
-608.616
-22595
-605.724
-22293.3
-602.856
-21993
-600.013
-21694.2
-597.195
-21396.7
-594.403
-21100.6
-591.637
-20805.8
-588.897
-20512.4
-586.184
-20220.3
-583.499
-19929.5
-580.841
-19640.1
-578.212
-19351.9
-575.611
-19065
-573.039
-18779.4
-570.496
-18495
-567.982
-18211.8
-565.499
-17929.9
-563.045
-17649.1
-560.622
-17369.6
-558.229
-17091.2
-555.867
-16813.9
-553.537
-16537.8
-551.237
-16262.9
-548.97
-15989
-546.734
-15716.2
-544.53
-15444.5
-542.358
-15173.9
-540.219
-14904.3
-538.112
-14635.7
-536.037
-14368.2
-533.996
-14101.6
-531.987
-13836
-530.012
-13571.4
-528.07
-13307.7
-526.161
-13045
-524.286
-12783.1
-522.444
-12522.2
-520.636
-12262.1
-518.862
-12002.9
-517.121
-11744.6
-515.415
-11487
-513.743
-11230.3
-512.104
-10974.4
-510.5
-10719.2
-508.931
-10464.8
-507.395
-10211.2
-505.894
-9958.26
-504.428
-9706.04
-502.996
-9454.52
-501.598
-9203.66
-500.235
-8953.47
-498.907
-8703.91
-497.613
-8454.98
-496.354
-8206.65
-495.13
-7958.91
-493.94
-7711.74
-492.786
-7465.12
-491.666
-7219.04
-490.581
-6973.48
-489.531
-6728.42
-488.516
-6483.85
-487.535
-6239.74
-486.59
-5996.08
-485.679
-5752.86
-484.804
-5510.05
-483.963
-5267.64
-483.158
-5025.61
-482.387
-4783.94
-481.652
-4542.62
-480.951
-4301.63
-480.285
-4060.95
-479.655
-3820.56
-479.059
-3580.45
-478.499
-3340.6
-477.974
-3101
-477.484
-2861.61
-477.029
-2622.44
-476.61
-2383.45
-476.226
-2144.63
-475.879
-1905.97
-475.567
-1667.45
-475.293
-1429.04
-475.056
-1190.73
-474.856
-952.5
-474.695
-714.331
-474.571
-476.204
-474.486
-238.1
-474.437
-474.424
-2202.17
6659.15
-4397.37
6638.4
-6577.38
6589.1
-8734.17
6513.56
-10860.4
6414.32
-12949.6
6294.26
-14996.1
6156.74
-16995.3
6005.39
-18943.7
5843.93
-20838.8
5675.86
-22679.1
5504.34
-24463.9
5332.13
-26193.2
5161.57
-27867.8
4994.57
-29488.8
4832.61
-31057.9
4676.77
-32577
4527.75
-34048.2
4385.89
-35473.8
4251.24
-36855.9
4123.63
-38196.8
4002.71
-39498.4
3888.02
-40762.8
3779.04
-41991.6
3675.18
-43186.5
3575.9
-44349
3480.63
-45480.3
3388.86
-46581.4
3300.09
-47653.4
3213.91
-48697.1
3129.92
-49713.1
3047.81
-50702.1
2967.31
-51664.6
2888.19
-52601
2810.27
-53511.7
2733.41
-54397.1
2657.5
-55257.4
2582.46
-56093
2508.23
-56904.1
2434.77
-57691
2362.05
-58453.8
2290.05
-59193
2218.76
-59908.6
2148.16
-60600.9
2078.26
-61270.2
2009.05
-61916.6
1940.53
-62540.5
1872.7
-63142
1805.57
-63721.4
1739.12
-64278.9
1673.38
-64814.7
1608.34
-65329.1
1544.01
-65822.3
1480.39
-66294.5
1417.49
-66746.1
1355.3
-67177.2
1293.85
-67588
1233.13
-67978.9
1173.15
-68350
1113.91
-68701.7
1055.42
-69034.1
997.685
-69347.5
940.713
-69642.3
884.508
-69918.5
829.076
-70176.6
774.421
-70416.7
720.548
-70639.1
667.464
-70844.2
615.171
-71032
563.674
-71203
512.978
-71357.4
463.087
-71495.4
414.003
-71617.3
365.729
-71723.4
318.27
-71814
271.626
-71889.4
225.799
-71949.7
180.793
-71995.3
136.606
-72026.5
93.2417
-72043.5
50.6989
-72046.6
8.97777
-72036.1
-31.9219
-72012.3
-72.001
-71975.3
-111.261
-71925.6
-149.703
-71863.3
-187.33
-71788.8
-224.143
-71702.3
-260.146
-71604.1
-295.342
-71494.4
-329.735
-71373.5
-363.329
-71241.7
-396.127
-71099.3
-428.135
-70946.4
-459.359
-70783.4
-489.802
-70610.6
-519.472
-70428.1
-548.374
-70236.2
-576.515
-70035.2
-603.901
-69825.4
-630.539
-69606.9
-656.437
-69380.1
-681.603
-69145.1
-706.043
-68902.2
-729.767
-68651.7
-752.781
-68393.7
-775.096
-68128.5
-796.719
-67856.4
-817.659
-67577.5
-837.926
-67292.1
-857.528
-67000.4
-876.475
-66702.5
-894.777
-66398.8
-912.442
-66089.5
-929.482
-65774.6
-945.905
-65454.5
-961.721
-65129.4
-976.942
-64799.4
-991.575
-64464.6
-1005.63
-64125.4
-1019.13
-63781.9
-1032.06
-63434.3
-1044.45
-63082.7
-1056.31
-62727.4
-1067.64
-62368.4
-1078.45
-62006
-1088.77
-61640.4
-1098.58
-61271.6
-1107.92
-60899.9
-1116.78
-60525.4
-1125.18
-60148.3
-1133.12
-59768.6
-1140.62
-59386.6
-1147.69
-59002.4
-1154.34
-58616.1
-1160.57
-58227.9
-1166.4
-57837.9
-1171.83
-57446.2
-1176.88
-57052.9
-1181.56
-56658.2
-1185.87
-56262.2
-1189.83
-55865
-1193.44
-55466.7
-1196.71
-55067.4
-1199.66
-54667.2
-1202.29
-54266.3
-1204.6
-53864.6
-1206.62
-53462.5
-1208.34
-53059.8
-1209.78
-52656.7
-1210.94
-52253.4
-1211.83
-51849.8
-1212.46
-51446.1
-1212.85
-51042.4
-1212.98
-50638.7
-1212.88
-50235.1
-1212.56
-49831.7
-1212.01
-49428.5
-1211.24
-49025.7
-1210.27
-48623.2
-1209.1
-48221.2
-1207.74
-47819.7
-1206.19
-47418.8
-1204.46
-47018.5
-1202.56
-46618.9
-1200.49
-46220
-1198.26
-45822
-1195.88
-45424.7
-1193.34
-45028.4
-1190.67
-44633
-1187.86
-44238.5
-1184.91
-43845.1
-1181.85
-43452.7
-1178.66
-43061.5
-1175.35
-42671.3
-1171.94
-42282.4
-1168.42
-41894.6
-1164.8
-41508
-1161.09
-41122.8
-1157.28
-40738.8
-1153.39
-40356.1
-1149.42
-39974.8
-1145.37
-39594.8
-1141.24
-39216.3
-1137.05
-38839.1
-1132.79
-38463.4
-1128.47
-38089.1
-1124.1
-37716.3
-1119.66
-37345
-1115.18
-36975.2
-1110.65
-36606.9
-1106.08
-36240.1
-1101.47
-35874.9
-1096.82
-35511.2
-1092.14
-35149.1
-1087.43
-34788.5
-1082.69
-34429.6
-1077.92
-34072.2
-1073.13
-33716.4
-1068.32
-33362.2
-1063.5
-33009.6
-1058.66
-32658.6
-1053.81
-32309.3
-1048.95
-31961.5
-1044.08
-31615.4
-1039.21
-31270.8
-1034.34
-30927.9
-1029.46
-30586.6
-1024.59
-30246.9
-1019.72
-29908.9
-1014.85
-29572.4
-1009.99
-29237.5
-1005.14
-28904.3
-1000.31
-28572.6
-995.481
-28242.5
-990.669
-27914.1
-985.872
-27587.2
-981.093
-27261.8
-976.333
-26938.1
-971.592
-26615.9
-966.873
-26295.2
-962.177
-25976.1
-957.505
-25658.6
-952.858
-25342.6
-948.237
-25028.1
-943.644
-24715.1
-939.079
-24403.6
-934.545
-24093.5
-930.041
-23785
-925.569
-23478
-921.129
-23172.4
-916.723
-22868.2
-912.352
-22565.5
-908.016
-22264.2
-903.716
-21964.3
-899.453
-21665.8
-895.228
-21368.6
-891.041
-21072.9
-886.893
-20778.5
-882.786
-20485.5
-878.718
-20193.8
-874.692
-19903.4
-870.707
-19614.3
-866.765
-19326.5
-862.865
-19039.9
-859.008
-18754.7
-855.195
-18470.6
-851.427
-18187.8
-847.703
-17906.3
-844.024
-17625.9
-840.391
-17346.7
-836.804
-17068.6
-833.263
-16791.8
-829.769
-16516
-826.321
-16241.4
-822.921
-15967.9
-819.569
-15695.5
-816.265
-15424.1
-813.009
-15153.9
-809.801
-14884.6
-806.642
-14616.4
-803.532
-14349.2
-800.472
-14083
-797.46
-13817.7
-794.499
-13553.5
-791.587
-13290.1
-788.725
-13027.7
-785.914
-12766.2
-783.153
-12505.6
-780.442
-12245.9
-777.782
-11987
-775.173
-11729
-772.614
-11471.8
-770.107
-11215.4
-767.651
-10959.8
-765.247
-10705
-762.893
-10451
-760.591
-10197.6
-758.341
-9945.04
-756.142
-9693.16
-753.995
-9441.96
-751.9
-9191.44
-749.857
-8941.58
-747.865
-8692.35
-745.926
-8443.75
-744.039
-8195.75
-742.203
-7948.33
-740.42
-7701.49
-738.689
-7455.2
-737.01
-7209.45
-735.384
-6964.21
-733.809
-6719.48
-732.287
-6475.23
-730.818
-6231.44
-729.4
-5988.11
-728.035
-5745.21
-726.723
-5502.72
-725.463
-5260.63
-724.255
-5018.92
-723.1
-4777.58
-721.997
-4536.58
-720.946
-4295.9
-719.949
-4055.54
-719.003
-3815.48
-718.111
-3575.69
-717.27
-3336.16
-716.483
-3096.87
-715.748
-2857.8
-715.067
-2618.95
-714.438
-2380.28
-713.863
-2141.78
-713.342
-1903.44
-712.875
-1665.23
-712.464
-1427.14
-712.108
-1189.15
-711.809
-951.234
-711.567
-713.381
-711.382
-475.57
-711.255
-237.782
-711.183
-711.164
-2175.74
8833.83
-4345.18
8806.79
-6501.12
8743.99
-8636.54
8647.9
-10744.9
8521.56
-12820.1
8368.39
-14857
8192.49
-16851
7998.27
-18798.5
7790.29
-20696.7
7572.86
-22543.5
7349.97
-24337.6
7125.1
-26078.5
6901.29
-27766.2
6681.07
-29401.2
6466.48
-30984.6
6259.06
-32517.8
6059.87
-34002.5
5869.52
-35440.6
5688.27
-36834
5516.03
-38184.8
5352.5
-39495
5197.2
-40766.5
5049.52
-42001.1
4908.82
-43200.5
4774.37
-44366.3
4645.5
-45499.9
4521.51
-46602.5
4401.78
-47675.3
4285.72
-48719.1
4172.81
-49734.8
4062.6
-50723.1
3954.69
-51684.6
3848.77
-52619.8
3744.57
-53529.1
3641.87
-54413
3540.51
-55271.8
3440.36
-56105.8
3341.34
-56915.3
3243.38
-57700.6
3146.43
-58461.8
3050.45
-59199.4
2955.42
-59913.4
2861.33
-60604.2
2768.17
-61271.9
2675.94
-61916.8
2584.62
-62539.2
2494.23
-63139.2
2404.76
-63717.2
2316.21
-64273.2
2228.6
-64807.6
2141.92
-65320.6
2056.19
-65812.4
1971.4
-66283.3
1887.57
-66733.6
1804.7
-67163.3
1722.8
-67572.9
1641.88
-67962.4
1561.94
-68332.3
1482.99
-68682.7
1405.05
-69013.9
1328.1
-69326.2
1252.18
-69619.7
1177.27
-69894.8
1103.4
-70151.7
1030.56
-70390.7
958.767
-70612
888.022
-70815.9
818.333
-71002.7
749.706
-71172.6
682.146
-71325.9
615.658
-71462.9
550.247
-71583.8
485.917
-71688.9
422.672
-71778.5
360.514
-71852.8
299.447
-71912.2
239.472
-71956.9
180.591
-71987.1
122.806
-72003.3
66.1168
-72005.5
10.5232
-71994.1
-43.9752
-71969.4
-97.3795
-71931.6
-149.691
-71881.1
-200.913
-71818
-251.047
-71742.7
-300.097
-71655.4
-348.066
-71556.5
-394.96
-71446
-440.782
-71324.5
-485.539
-71192
-529.236
-71048.9
-571.879
-70895.4
-613.475
-70731.7
-654.032
-70558.3
-693.558
-70375.2
-732.059
-70182.7
-769.546
-69981.2
-806.027
-69770.8
-841.511
-69551.8
-876.008
-69324.5
-909.528
-69089
-942.082
-68845.6
-973.68
-68594.6
-1004.33
-68336.2
-1034.05
-68070.6
-1062.85
-67798.1
-1090.74
-67518.8
-1117.73
-67233.1
-1143.83
-66941
-1169.07
-66642.9
-1193.44
-66338.8
-1216.96
-66029.2
-1239.65
-65714.1
-1261.52
-65393.7
-1282.57
-65068.3
-1302.84
-64738.1
-1322.32
-64403.1
-1341.04
-64063.7
-1359
-63720.1
-1376.22
-63372.3
-1392.71
-63020.5
-1408.49
-62665.1
-1423.57
-62306
-1437.97
-61943.5
-1451.69
-61577.8
-1464.76
-61208.9
-1477.18
-60837.2
-1488.97
-60462.6
-1500.14
-60085.5
-1510.71
-59705.8
-1520.69
-59323.8
-1530.09
-58939.6
-1538.93
-58553.4
-1547.22
-58165.2
-1554.97
-57775.2
-1562.19
-57383.6
-1568.91
-56990.4
-1575.12
-56595.7
-1580.85
-56199.8
-1586.11
-55802.7
-1590.91
-55404.5
-1595.25
-55005.4
-1599.16
-54605.3
-1602.65
-54204.5
-1605.72
-53803.1
-1608.39
-53401.1
-1610.67
-52998.6
-1612.57
-52595.7
-1614.1
-52192.6
-1615.28
-51789.2
-1616.11
-51385.7
-1616.6
-50982.2
-1616.77
-50578.7
-1616.63
-50175.4
-1616.18
-49772.2
-1615.43
-49369.3
-1614.4
-48966.7
-1613.1
-48564.5
-1611.53
-48162.8
-1609.7
-47761.6
-1607.62
-47360.9
-1605.31
-46960.9
-1602.76
-46561.6
-1599.99
-46163.1
-1597.01
-45765.3
-1593.82
-45368.4
-1590.44
-44972.4
-1586.87
-44577.3
-1583.11
-44183.2
-1579.18
-43790.1
-1575.08
-43398
-1570.82
-43007.1
-1566.41
-42617.3
-1561.85
-42228.7
-1557.16
-41841.3
-1552.33
-41455.1
-1547.37
-41070.2
-1542.29
-40686.6
-1537.1
-40304.3
-1531.8
-39923.3
-1526.39
-39543.7
-1520.89
-39165.5
-1515.29
-38788.8
-1509.61
-38413.4
-1503.85
-38039.5
-1498.01
-37667.1
-1492.1
-37296.2
-1486.12
-36926.7
-1480.08
-36558.8
-1473.98
-36192.4
-1467.83
-35827.6
-1461.63
-35464.3
-1455.39
-35102.6
-1449.1
-34742.4
-1442.78
-34383.9
-1436.42
-34026.9
-1430.04
-33671.5
-1423.63
-33317.7
-1417.19
-32965.5
-1410.74
-32615
-1404.27
-32266
-1397.79
-31918.6
-1391.3
-31572.9
-1384.81
-31228.8
-1378.31
-30886.3
-1371.81
-30545.4
-1365.31
-30206.1
-1358.82
-29868.4
-1352.33
-29532.3
-1345.85
-29197.9
-1339.39
-28865
-1332.94
-28533.8
-1326.5
-28204.1
-1320.09
-27876
-1313.7
-27549.5
-1307.32
-27224.6
-1300.98
-26901.3
-1294.66
-26579.5
-1288.37
-26259.2
-1282.11
-25940.5
-1275.88
-25623.4
-1269.69
-25307.8
-1263.53
-24993.7
-1257.4
-24681.1
-1251.32
-24370
-1245.27
-24060.3
-1239.27
-23752.2
-1233.31
-23445.6
-1227.39
-23140.3
-1221.52
-22836.6
-1215.69
-22534.2
-1209.91
-22233.3
-1204.18
-21933.8
-1198.5
-21635.7
-1192.87
-21339
-1187.29
-21043.6
-1181.76
-20749.6
-1176.29
-20457
-1170.86
-20165.7
-1165.5
-19875.7
-1160.19
-19587
-1154.93
-19299.5
-1149.73
-19013.4
-1144.59
-18728.5
-1139.51
-18444.9
-1134.49
-18162.4
-1129.53
-17881.2
-1124.62
-17601.2
-1119.78
-17322.4
-1115
-17044.8
-1110.28
-16768.3
-1105.62
-16492.9
-1101.03
-16218.7
-1096.5
-15945.5
-1092.03
-15673.5
-1087.63
-15402.5
-1083.29
-15132.6
-1079.01
-14863.7
-1074.8
-14595.9
-1070.66
-14329
-1066.58
-14063.2
-1062.57
-13798.3
-1058.62
-13534.4
-1054.74
-13271.4
-1050.93
-13009.4
-1047.18
-12748.2
-1043.5
-12488
-1039.89
-12228.6
-1036.34
-11970.1
-1032.87
-11712.5
-1029.46
-11455.6
-1026.11
-11199.6
-1022.84
-10944.4
-1019.64
-10689.9
-1016.5
-10436.2
-1013.43
-10183.2
-1010.43
-9931
-1007.5
-9679.46
-1004.64
-9428.62
-1001.85
-9178.45
-999.128
-8928.94
-996.475
-8680.06
-993.89
-8431.8
-991.375
-8184.15
-988.929
-7937.09
-986.553
-7690.59
-984.246
-7444.65
-982.009
-7199.24
-979.841
-6954.35
-977.743
-6709.96
-975.715
-6466.06
-973.756
-6222.62
-971.868
-5979.63
-970.049
-5737.07
-968.3
-5494.93
-966.62
-5253.18
-965.011
-5011.81
-963.471
-4770.81
-962.002
-4530.15
-960.602
-4289.82
-959.273
-4049.8
-958.013
-3810.07
-956.823
-3570.62
-955.704
-3331.43
-954.654
-3092.48
-953.675
-2853.75
-952.767
-2615.23
-951.929
-2376.9
-951.163
-2138.74
-950.468
-1900.74
-949.846
-1662.87
-949.298
-1425.12
-948.824
-1187.46
-948.425
-949.887
-948.103
-712.373
-947.857
-474.9
-947.687
-237.449
-947.592
-947.571
-2150.45
10983.2
-4295.15
10950.4
-6427.94
10875.7
-8542.69
10761.6
-10633.6
10611.3
-12695.1
10428.8
-14722.4
10218.6
-16711.1
9985.79
-18657.4
9735.45
-20558.4
9472.59
-22411.4
9201.82
-24214.8
8927.28
-25967.3
8652.62
-27668.3
8380.97
-29317.9
8114.9
-30916.5
7856.45
-32464.8
7607.11
-33964.2
7367.84
-35416.2
7139.16
-36822.4
6921.19
-38184.7
6713.75
-39504.9
6516.4
-40785
6328.58
-42026.7
6149.55
-43231.9
5978.56
-44402.1
5814.79
-45539
5657.43
-46643.9
5505.71
-47718
5358.9
-48762.4
5216.33
-49778.2
5077.41
-50766
4941.62
-51726.6
4808.51
-52660.7
4677.74
-53568.7
4548.98
-54451.1
4422.02
-55308.3
4296.67
-56140.6
4172.79
-56948.4
4050.27
-57731.9
3929.06
-58491.4
3809.09
-59227.2
3690.34
-59939.5
3572.76
-60628.6
3456.36
-61294.6
3341.11
-61937.8
3227.02
-62558.5
3114.08
-63156.9
3002.3
-63733.2
2891.67
-64287.7
2782.21
-64820.5
2673.92
-65331.9
2566.8
-65822.2
2460.87
-66291.6
2356.13
-66740.3
2252.59
-67168.5
2150.26
-67576.6
2049.15
-67964.7
1949.27
-68333.2
1850.63
-68682.1
1753.24
-69011.9
1657.11
-69322.8
1562.24
-69614.9
1468.66
-69888.6
1376.35
-70144.2
1285.35
-70381.8
1195.64
-70601.8
1107.25
-70804.4
1020.18
-70989.9
934.441
-71158.5
850.031
-71310.5
766.962
-71446.2
685.239
-71565.9
604.867
-71669.8
525.851
-71758.2
448.195
-71831.4
371.903
-71889.6
296.976
-71933.1
223.417
-71962.2
151.228
-71977.2
80.4084
-71978.3
10.9589
-71965.8
-57.1212
-71940
-123.833
-71901.2
-189.18
-71849.6
-253.163
-71785.5
-315.787
-71709.2
-377.056
-71621
-436.973
-71521
-495.546
-71409.7
-552.779
-71287.1
-608.68
-71153.7
-663.256
-71009.7
-716.515
-70855.4
-768.465
-70690.9
-819.116
-70516.6
-868.478
-70332.7
-916.56
-70139.4
-963.373
-69937.1
-1008.93
-69726
-1053.24
-69506.2
-1096.31
-69278.2
-1138.17
-69042
-1178.82
-68798
-1218.27
-68546.3
-1256.54
-68287.3
-1293.65
-68021.1
-1329.6
-67747.9
-1364.41
-67468.1
-1398.11
-67181.8
-1430.7
-66889.2
-1462.19
-66590.5
-1492.61
-66286
-1521.97
-65975.9
-1550.29
-65660.3
-1577.58
-65339.5
-1603.87
-65013.7
-1629.15
-64683
-1653.47
-64347.7
-1676.82
-64008
-1699.23
-63663.9
-1720.72
-63315.8
-1741.29
-62963.8
-1760.98
-62608
-1779.79
-62248.7
-1797.75
-61886
-1814.87
-61520
-1831.16
-61150.9
-1846.65
-60779
-1861.36
-60404.3
-1875.29
-60026.9
-1888.46
-59647.1
-1900.9
-59265
-1912.62
-58880.7
-1923.64
-58494.3
-1933.97
-58106
-1943.62
-57716
-1952.62
-57324.3
-1960.99
-56931
-1968.73
-56536.4
-1975.86
-56140.5
-1982.41
-55743.3
-1988.37
-55345.2
-1993.78
-54946
-1998.64
-54546
-2002.97
-54145.3
-2006.78
-53743.9
-2010.1
-53342
-2012.92
-52939.6
-2015.27
-52536.8
-2017.17
-52133.7
-2018.62
-51730.5
-2019.63
-51327.2
-2020.23
-50923.8
-2020.42
-50520.5
-2020.22
-50117.3
-2019.64
-49714.3
-2018.69
-49311.5
-2017.38
-48909.1
-2015.73
-48507.1
-2013.75
-48105.6
-2011.45
-47704.6
-2008.84
-47304.2
-2005.93
-46904.4
-2002.73
-46505.4
-1999.26
-46107.1
-1995.52
-45709.5
-1991.52
-45312.9
-1987.28
-44917.1
-1982.8
-44522.3
-1978.09
-44128.5
-1973.16
-43735.7
-1968.03
-43343.9
-1962.7
-42953.3
-1957.17
-42563.8
-1951.47
-42175.5
-1945.58
-41788.4
-1939.54
-41402.5
-1933.33
-41017.9
-1926.98
-40634.6
-1920.48
-40252.7
-1913.84
-39872
-1907.08
-39492.8
-1900.19
-39115
-1893.19
-38738.5
-1886.09
-38363.5
-1878.88
-37990
-1871.57
-37617.9
-1864.18
-37247.4
-1856.7
-36878.3
-1849.15
-36510.7
-1841.52
-36144.7
-1833.83
-35780.3
-1826.07
-35417.3
-1818.26
-35056
-1810.4
-34696.2
-1802.5
-34338
-1794.55
-33981.4
-1786.56
-33626.4
-1778.55
-33273
-1770.5
-32921.2
-1762.44
-32571
-1754.35
-32222.5
-1746.25
-31875.5
-1738.14
-31530.1
-1730.01
-31186.4
-1721.89
-30844.3
-1713.76
-30503.8
-1705.64
-30164.9
-1697.52
-29827.6
-1689.41
-29492
-1681.32
-29157.9
-1673.24
-28825.4
-1665.17
-28494.6
-1657.13
-28165.3
-1649.11
-27837.6
-1641.12
-27511.5
-1633.16
-27187
-1625.23
-26864.1
-1617.33
-26542.7
-1609.47
-26222.8
-1601.64
-25904.5
-1593.86
-25587.8
-1586.11
-25272.6
-1578.42
-24958.8
-1570.77
-24646.6
-1563.16
-24335.9
-1555.61
-24026.7
-1548.1
-23719
-1540.65
-23412.7
-1533.26
-23107.9
-1525.92
-22804.5
-1518.64
-22502.6
-1511.42
-22202.1
-1504.25
-21903
-1497.15
-21605.3
-1490.12
-21308.9
-1483.14
-21014
-1476.24
-20720.4
-1469.39
-20428.1
-1462.62
-20137.2
-1455.91
-19847.5
-1449.28
-19559.2
-1442.71
-19272.2
-1436.22
-18986.4
-1429.79
-18701.9
-1423.44
-18418.7
-1417.17
-18136.6
-1410.97
-17855.8
-1404.84
-17576.2
-1398.79
-17297.8
-1392.82
-17020.5
-1386.92
-16744.4
-1381.1
-16469.4
-1375.36
-16195.5
-1369.7
-15922.8
-1364.12
-15651.1
-1358.61
-15380.5
-1353.19
-15111
-1347.85
-14842.5
-1342.59
-14575
-1337.41
-14308.5
-1332.32
-14043
-1327.3
-13778.5
-1322.37
-13515
-1317.52
-13252.4
-1312.76
-12990.7
-1308.08
-12730
-1303.48
-12470.1
-1298.97
-12211.1
-1294.54
-11952.9
-1290.19
-11695.6
-1285.93
-11439.2
-1281.76
-11183.5
-1277.67
-10928.6
-1273.67
-10674.5
-1269.75
-10421.2
-1265.92
-10168.6
-1262.17
-9916.7
-1258.51
-9665.53
-1254.93
-9415.04
-1251.45
-9165.23
-1248.04
-8916.07
-1244.73
-8667.55
-1241.5
-8419.65
-1238.36
-8172.35
-1235.3
-7925.64
-1232.33
-7679.5
-1229.45
-7433.91
-1226.65
-7188.85
-1223.95
-6944.32
-1221.33
-6700.28
-1218.79
-6456.72
-1216.35
-6213.63
-1213.99
-5970.99
-1211.71
-5728.78
-1209.53
-5486.99
-1207.43
-5245.59
-1205.42
-5004.57
-1203.5
-4763.91
-1201.66
-4523.6
-1199.91
-4283.62
-1198.25
-4043.94
-1196.68
-3804.56
-1195.19
-3565.46
-1193.79
-3326.61
-1192.48
-3088.01
-1191.26
-2849.62
-1190.12
-2611.45
-1189.08
-2373.47
-1188.12
-2135.65
-1187.25
-1897.99
-1186.47
-1660.46
-1185.79
-1423.06
-1185.2
-1185.74
-1184.7
-948.513
-1184.3
-711.342
-1183.99
-474.212
-1183.78
-237.103
-1183.66
-1183.63
-2123.37
13105.5
-4241.69
13067.6
-6349.77
12982.7
-8442.38
12853
-10514.4
12682.2
-12561.1
12474.3
-14577.8
12234.1
-16560.3
11967.1
-18505
11678.9
-20408.4
11374.8
-22267.8
11060
-24080.9
10739.1
-25845.9
10416.4
-27561.6
10095.5
-29227.3
9779.4
-30842.8
9470.8
-32408.4
9171.58
-33924.8
8883.15
-35393.1
8606.36
-36814.6
8341.61
-38190.9
8088.94
-39523.6
7848.07
-40814.5
7618.49
-42065.5
7399.54
-43278.4
7190.41
-44454.8
6990.24
-45596.4
6798.12
-46704.9
6613.16
-47781.4
6434.5
-48827.3
6261.33
-49843.8
6092.91
-50831.6
5928.59
-51791.8
5767.78
-52725
5610.02
-53631.8
5454.9
-54512.8
5302.1
-55368.4
5151.36
-56198.9
5002.49
-57004.9
4855.35
-57786.5
4709.82
-58544.1
4565.83
-59278
4423.33
-59988.4
4282.27
-60675.5
4142.62
-61339.6
4004.38
-61981
3867.53
-62599.8
3732.06
-63196.3
3597.98
-63770.7
3465.29
-64323.4
3333.99
-64854.4
3204.1
-65364
3075.62
-65852.5
2948.56
-66320.1
2822.92
-66767.1
2698.73
-67193.6
2575.99
-67599.9
2454.71
-67986.4
2334.9
-68353.1
2216.58
-68700.4
2099.76
-69028.5
1984.45
-69337.7
1870.65
-69628.2
1758.4
-69900.3
1647.68
-70154.2
1538.52
-70390.2
1430.92
-70608.6
1324.9
-70809.7
1220.46
-70993.6
1117.61
-71160.6
1016.37
-71311.1
916.729
-71445.3
818.708
-71563.5
722.308