/*--------------------------------*- C++ -*----------------------------------*\
| =========                 |                                                 |
| \\      /  F ield         | OpenFOAM: The Open Source CFD Toolbox           |
|  \\    /   O peration     | Version:  2212                                  |
|   \\  /    A nd           | Website:  www.openfoam.com                      |
|    \\/     M anipulation  |                                                 |
\*---------------------------------------------------------------------------*/
FoamFile
{
    version     2.0;
    format      ascii;
    arch        "LSB;label=32;scalar=64";
    class       surfaceScalarField;
    location    "670";
    object      phi;
}
// * * * * * * * * * * * * * * * * * * * * * * * * * * * * * * * * * * * * * //

dimensions      [1 0 -1 0 0 0 0];

oriented        oriented;

internalField   nonuniform List<scalar> 
408640
(
-1272.4
1273.03
-2508.57
1236.21
-3674.95
1166.42
-4753.08
1078.19
-5740.37
987.352
-6646.22
905.92
-7487.08
840.948
-8281.26
794.261
-9045.32
764.152
-9792.25
747.024
-10531.1
738.929
-11267.4
736.401
-12004.1
736.842
-12742.6
738.504
-13482.8
740.343
-14224.5
741.801
-14967.1
742.635
-15709.7
742.775
-16451.9
742.244
-17192.9
741.098
-17932.2
739.408
-18669.4
737.237
-19403.9
734.645
-20135.5
731.679
-20863.8
728.379
-21588.5
724.78
-22309.3
720.908
-23026
716.786
-23738.4
712.433
-24446.2
707.866
-25149.2
703.098
-25847.3
698.142
-26540.2
693.007
-27227.8
687.703
-27910
682.239
-28586.5
676.621
-29257.3
670.857
-29922.2
664.951
-30581.1
658.911
-31233.7
652.742
-31880.1
646.447
-32520.1
640.033
-33153.5
633.502
-33780.3
626.86
-34400.4
620.111
-35013.6
613.259
-35619.8
606.306
-36219
599.257
-36811.1
592.116
-37395.9
584.886
-37973.4
577.57
-38543.5
570.172
-39106.2
562.695
-39661.3
555.143
-40208.8
547.517
-40748.5
539.823
-41280.6
532.062
-41804.8
524.238
-42321.1
516.355
-42829.4
508.414
-43329.8
500.419
-43822.2
492.373
-44306.4
484.279
-44782.5
476.14
-45250.4
467.958
-45710.1
459.738
-46161.6
451.48
-46604.7
443.189
-47039.6
434.867
-47466.1
426.517
-47884.2
418.141
-48293.9
409.742
-48695.2
401.324
-49088.1
392.888
-49472.5
384.437
-49848.4
375.974
-50215.9
367.501
-50574.9
359.021
-50925.4
350.536
-51267.5
342.05
-51601
333.563
-51926.1
325.079
-52242.7
316.6
-52550.8
308.128
-52850.5
299.666
-53141.7
291.216
-53424.4
282.779
-53698.8
274.359
-53964.8
265.958
-54222.3
257.576
-54471.5
249.217
-54712.4
240.883
-54945
232.575
-55169.3
224.296
-55385.3
216.047
-55593.2
207.83
-55792.8
199.647
-55984.3
191.499
-56167.7
183.39
-56343.1
175.319
-56510.4
167.289
-56669.7
159.302
-56821
151.358
-56964.5
143.46
-57100.1
135.609
-57228
127.806
-57348
120.053
-57460.4
112.351
-57565.1
104.701
-57662.2
97.1051
-57751.8
89.5638
-57833.9
82.0784
-57908.6
74.6502
-57975.9
67.2801
-58035.9
59.9692
-58088.6
52.7185
-58134.2
45.5289
-58172.6
38.4014
-58204
31.3368
-58228.3
24.3359
-58245.8
17.3996
-58256.3
10.5285
-58260.1
3.72339
-58257.1
-3.01508
-58247.5
-9.68629
-58231.2
-16.2896
-58208.4
-22.8246
-58179.2
-29.2907
-58143.5
-35.6874
-58101.6
-42.0142
-58053.3
-48.2709
-57998.9
-54.457
-57938.4
-60.5722
-57871.8
-66.6162
-57799.3
-72.5888
-57720.8
-78.4897
-57636.6
-84.3187
-57546.6
-90.0757
-57450.8
-95.7606
-57349.5
-101.373
-57242.7
-106.913
-57130.4
-112.381
-57012.6
-117.777
-56889.6
-123.1
-56761.3
-128.351
-56627.8
-133.53
-56489.3
-138.636
-56345.7
-143.671
-56197.1
-148.634
-56043.7
-153.525
-55885.4
-158.344
-55722.4
-163.093
-55554.7
-167.77
-55382.4
-172.377
-55205.5
-176.913
-55024.2
-181.38
-54838.6
-185.776
-54648.5
-190.103
-54454.3
-194.361
-54255.8
-198.55
-54053.2
-202.671
-53846.6
-206.725
-53636
-210.711
-53421.4
-214.629
-53203.1
-218.482
-52980.9
-222.268
-52755
-225.989
-52525.5
-229.645
-52292.3
-233.236
-52055.7
-236.764
-51815.6
-240.228
-51572.1
-243.629
-51325.2
-246.968
-51075.1
-250.246
-50821.7
-253.462
-50565.2
-256.618
-50305.6
-259.714
-50043
-262.75
-49777.4
-265.728
-49508.9
-268.648
-49237.5
-271.511
-48963.3
-274.316
-48686.4
-277.066
-48406.8
-279.76
-48124.5
-282.399
-47839.7
-284.985
-47552.3
-287.516
-47262.5
-289.995
-46970.2
-292.421
-46675.6
-294.797
-46378.6
-297.121
-46079.4
-299.395
-45777.9
-301.619
-45474.3
-303.795
-45168.5
-305.923
-44860.7
-308.003
-44550.8
-310.036
-44239
-312.023
-43925.2
-313.965
-43609.5
-315.862
-43292
-317.715
-42972.6
-319.525
-42651.5
-321.291
-42328.7
-323.016
-42004.2
-324.699
-41678
-326.342
-41350.3
-327.944
-41021
-329.507
-40690.2
-331.032
-40357.8
-332.518
-40024.1
-333.967
-39688.9
-335.378
-39352.4
-336.754
-39014.5
-338.094
-38675.3
-339.4
-38334.9
-340.671
-37993.2
-341.908
-37650.3
-343.112
-37306.2
-344.284
-36961
-345.424
-36614.7
-346.533
-36267.4
-347.612
-35918.9
-348.66
-35569.5
-349.679
-35219.1
-350.669
-34867.7
-351.631
-34515.4
-352.565
-34162.1
-353.472
-33808
-354.353
-33453.1
-355.207
-33097.3
-356.036
-32740.7
-356.841
-32383.4
-357.621
-32025.3
-358.377
-31666.4
-359.109
-31306.9
-359.82
-30946.6
-360.507
-30585.7
-361.173
-30224.2
-361.818
-29862
-362.442
-29499.3
-363.046
-29135.9
-363.63
-28772
-364.195
-28407.6
-364.741
-28042.6
-365.268
-27677.1
-365.778
-27311.1
-366.27
-26944.7
-366.745
-26577.8
-367.204
-26210.4
-367.646
-25842.7
-368.073
-25474.5
-368.484
-25105.9
-368.881
-24737
-369.262
-24367.6
-369.63
-23998
-369.984
-23628
-370.325
-23257.6
-370.653
-22887
-370.968
-22516
-371.271
-22144.8
-371.562
-21773.3
-371.842
-21401.5
-372.11
-21029.5
-372.368
-20657.2
-372.615
-20284.7
-372.852
-19911.9
-373.079
-19539
-373.297
-19165.8
-373.505
-18792.4
-373.704
-18418.9
-373.895
-18045.2
-374.077
-17671.3
-374.252
-17297.2
-374.418
-16923
-374.577
-16548.6
-374.729
-16174.1
-374.873
-15799.4
-375.011
-15424.6
-375.143
-15049.7
-375.268
-14674.7
-375.387
-14299.6
-375.5
-13924.3
-375.608
-13549
-375.71
-13173.5
-375.807
-12798
-375.899
-12422.4
-375.986
-12046.7
-376.069
-11670.9
-376.147
-11295.1
-376.221
-10919.1
-376.291
-10543.2
-376.357
-10167.1
-376.419
-9791
-376.478
-9414.85
-376.534
-9038.64
-376.586
-8662.38
-376.635
-8286.08
-376.681
-7909.74
-376.725
-7533.35
-376.766
-7156.93
-376.804
-6780.47
-376.84
-6403.98
-376.874
-6027.46
-376.906
-5650.91
-376.936
-5274.33
-376.965
-4897.72
-376.992
-4521.09
-377.017
-4144.43
-377.041
-3767.76
-377.065
-3391.06
-377.087
-3014.34
-377.108
-2637.6
-377.127
-2260.84
-377.146
-1884.06
-377.163
-1507.27
-377.179
-1130.47
-377.193
-753.652
-377.205
-376.828
-377.213
-377.217
-1250.87
2523.92
-2467.98
2453.36
-3620.81
2319.29
-4691.97
2149.41
-5678.21
1973.65
-6587.46
1815.24
-7434.39
1687.96
-8235.71
1595.67
-9006.87
1535.4
-9760.17
1500.41
-10504.3
1483.18
-11244.9
1477.03
-11984.8
1476.92
-12725.7
1479.4
-13467.6
1482.41
-14210.5
1484.8
-14953.9
1486.07
-15697.1
1486.05
-16439.5
1484.76
-17180.6
1482.3
-17919.9
1478.78
-18656.9
1474.34
-19391.2
1469.08
-20122.6
1463.09
-20850.5
1456.44
-21574.9
1449.2
-22295.3
1441.42
-23011.6
1433.16
-23723.5
1424.43
-24430.8
1415.28
-25133.4
1405.73
-25831
1395.8
-26523.4
1385.52
-27210.6
1374.91
-27892.2
1363.97
-28568.3
1352.73
-29238.5
1341.2
-29902.9
1329.38
-30561.2
1317.3
-31213.4
1304.96
-31859.2
1292.37
-32498.6
1279.54
-33131.6
1266.47
-33757.8
1253.19
-34377.3
1239.69
-34990
1225.99
-35595.7
1212.08
-36194.4
1197.98
-36785.9
1183.7
-37370.2
1169.24
-37947.2
1154.61
-38516.8
1139.82
-39078.9
1124.87
-39633.5
1109.76
-40180.5
1094.51
-40719.7
1079.13
-41251.2
1063.61
-41774.9
1047.96
-42290.7
1032.2
-42798.6
1016.32
-43298.5
1000.33
-43790.3
984.245
-44274
968.06
-44749.7
951.785
-45217.1
935.426
-45676.3
918.988
-46127.3
902.477
-46570
885.898
-47004.3
869.258
-47430.3
852.562
-47848
835.815
-48257.2
819.022
-48658.1
802.189
-49050.5
785.322
-49434.5
768.425
-49810
751.503
-50177
734.562
-50535.6
717.607
-50885.7
700.643
-51227.3
683.675
-51560.4
666.707
-51885.1
649.744
-52201.3
632.792
-52509
615.854
-52808.2
598.935
-53099
582.04
-53381.4
565.173
-53655.4
548.339
-53921
531.541
-54178.2
514.784
-54427
498.072
-54667.6
481.41
-54899.8
464.8
-55123.7
448.248
-55339.5
431.756
-55547
415.328
-55746.3
398.968
-55937.5
382.68
-56120.6
366.467
-56295.6
350.332
-56462.6
334.279
-56621.6
318.311
-56772.7
302.43
-56915.9
286.641
-57051.2
270.945
-57178.8
255.346
-57298.6
239.847
-57410.7
224.449
-57515.2
209.157
-57612.1
193.971
-57701.4
178.895
-57783.3
163.932
-57857.7
149.082
-57924.8
134.349
-57984.6
119.734
-58037.2
105.239
-58082.5
90.867
-58120.8
76.6189
-58152
62.4966
-58176.2
48.5018
-58193.4
34.636
-58203.8
20.9008
-58207.4
7.29756
-58204.3
-6.17244
-58194.5
-19.5079
-58178.1
-32.7077
-58155.2
-45.7708
-58125.9
-58.696
-58090.1
-71.4825
-58048
-84.1294
-57999.7
-96.6359
-57945.2
-109.001
-57884.6
-121.225
-57818
-133.306
-57745.4
-145.245
-57666.9
-157.04
-57582.6
-168.691
-57492.5
-180.198
-57396.7
-191.561
-57295.4
-202.78
-57188.5
-213.854
-57076.2
-224.783
-56958.4
-235.568
-56835.4
-246.208
-56707.1
-256.703
-56573.6
-267.054
-56435.1
-277.261
-56291.5
-287.324
-56143
-297.243
-55989.5
-307.019
-55831.3
-316.652
-55668.3
-326.143
-55500.7
-335.492
-55328.4
-344.699
-55151.7
-353.766
-54970.4
-362.692
-54784.8
-371.479
-54594.9
-380.128
-54400.7
-388.638
-54202.3
-397.011
-53999.8
-405.247
-53793.3
-413.348
-53582.8
-421.314
-53368.4
-429.146
-53150.1
-436.845
-52928.1
-444.413
-52702.3
-451.849
-52472.9
-459.156
-52239.9
-466.333
-52003.4
-473.383
-51763.4
-480.306
-51520.1
-487.104
-51273.4
-493.777
-51023.4
-500.327
-50770.2
-506.754
-50513.9
-513.061
-50254.5
-519.248
-49992.1
-525.317
-49726.7
-531.268
-49458.3
-537.103
-49187.2
-542.823
-48913.2
-548.43
-48636.5
-553.925
-48357.1
-559.309
-48075
-564.583
-47790.4
-569.749
-47503.2
-574.808
-47213.6
-579.761
-46921.6
-584.61
-46627.2
-589.357
-46330.5
-594.001
-46031.5
-598.545
-45730.3
-602.99
-45426.9
-607.338
-45121.4
-611.59
-44813.8
-615.746
-44504.2
-619.809
-44192.6
-623.78
-43879.1
-627.66
-43563.7
-631.451
-43246.4
-635.153
-42927.4
-638.769
-42606.5
-642.299
-42284
-645.745
-41959.8
-649.109
-41633.9
-652.391
-41306.5
-655.592
-40977.5
-658.715
-40646.9
-661.761
-40314.9
-664.73
-39981.5
-667.625
-39646.6
-670.446
-39310.4
-673.195
-38972.8
-675.872
-38634
-678.48
-38293.8
-681.019
-37952.5
-683.491
-37609.9
-685.898
-37266.2
-688.239
-36921.3
-690.517
-36575.4
-692.732
-36228.3
-694.886
-35880.2
-696.981
-35531.1
-699.016
-35181.1
-700.994
-34830
-702.916
-34478
-704.782
-34125.2
-706.594
-33771.4
-708.353
-33416.8
-710.06
-33061.4
-711.717
-32705.2
-713.323
-32348.2
-714.881
-31990.4
-716.392
-31631.9
-717.855
-31272.8
-719.274
-30912.9
-720.648
-30552.4
-721.978
-30191.2
-723.266
-29829.4
-724.513
-29467
-725.719
-29104
-726.885
-28740.5
-728.013
-28376.4
-729.103
-28011.8
-730.157
-27646.7
-731.175
-27281.1
-732.158
-26915.1
-733.107
-26548.5
-734.022
-26181.6
-734.906
-25814.2
-735.758
-25446.4
-736.579
-25078.2
-737.371
-24709.7
-738.134
-24340.8
-738.868
-23971.5
-739.575
-23601.9
-740.256
-23231.9
-740.91
-22861.7
-741.539
-22491.1
-742.144
-22120.3
-742.726
-21749.2
-743.284
-21377.8
-743.82
-21006.2
-744.334
-20634.3
-744.827
-20262.2
-745.3
-19889.8
-745.754
-19517.3
-746.188
-19144.5
-746.604
-18771.6
-747.002
-18398.4
-747.382
-18025.1
-747.746
-17651.6
-748.094
-17277.9
-748.427
-16904.1
-748.744
-16530.2
-749.046
-16156
-749.335
-15781.8
-749.61
-15407.4
-749.872
-15032.9
-750.122
-14658.3
-750.36
-14283.6
-750.585
-13908.8
-750.8
-13533.8
-751.004
-13158.8
-751.198
-12783.7
-751.381
-12408.5
-751.555
-12033.2
-751.72
-11657.8
-751.876
-11282.4
-752.024
-10906.9
-752.163
-10531.3
-752.295
-10155.7
-752.42
-9780.04
-752.537
-9404.3
-752.648
-9028.51
-752.752
-8652.67
-752.85
-8276.79
-752.942
-7900.87
-753.028
-7524.9
-753.11
-7148.9
-753.186
-6772.86
-753.258
-6396.8
-753.326
-6020.69
-753.39
-5644.56
-753.45
-5268.41
-753.506
-4892.22
-753.56
-4516.01
-753.611
-4139.78
-753.659
-3763.53
-753.706
-3387.25
-753.749
-3010.95
-753.791
-2634.64
-753.831
-2258.3
-753.868
-1881.95
-753.903
-1505.58
-753.934
-1129.2
-753.962
-752.81
-753.985
-376.408
-754.002
-754.014
-1224.43
3748.39
-2418.04
3647
-3553.71
3455.01
-4615.56
3211.31
-5599.85
2958.01
-6512.9
2728.37
-7367.27
2542.4
-8177.71
2406.2
-8958.16
2315.94
-9719.98
2262.32
-10471.4
2234.72
-11217.9
2223.61
-11962.6
2221.67
-12707
2223.88
-13451.6
2227.15
-14196.5
2229.78
-14941.3
2230.94
-15685.5
2230.35
-16428.6
2227.98
-17170.2
2223.96
-17909.8
2218.44
-18646.9
2211.59
-19381.3
2203.54
-20112.5
2194.43
-20840.4
2184.36
-21564.5
2173.42
-22284.7
2161.69
-23000.7
2149.24
-23712.3
2136.1
-24419.3
2122.34
-25121.5
2107.99
-25818.7
2093.07
-26510.7
2077.63
-27197.4
2061.69
-27878.6
2045.27
-28554.2
2028.4
-29224
2011.08
-29887.9
1993.35
-30545.8
1975.22
-31197.5
1956.7
-31842.8
1937.81
-32481.8
1918.56
-33114.2
1898.96
-33740
1879.03
-34359
1858.78
-34971.2
1838.22
-35576.4
1817.36
-36174.6
1796.22
-36765.6
1774.79
-37349.4
1753.1
-37925.9
1731.16
-38495
1708.97
-39056.7
1686.54
-39610.7
1663.89
-40157.2
1641.01
-40696
1617.94
-41227
1594.66
-41750.1
1571.2
-42265.5
1547.55
-42772.8
1523.74
-43272.2
1499.76
-43763.6
1475.63
-44246.8
1451.36
-44722
1426.95
-45188.9
1402.41
-45647.6
1377.76
-46098.1
1353
-46540.3
1328.13
-46974.2
1303.18
-47399.8
1278.14
-47817
1253.02
-48225.8
1227.84
-48626.2
1202.6
-49018.1
1177.3
-49401.6
1151.96
-49776.7
1126.59
-50143.3
1101.18
-50501.4
1075.76
-50851.1
1050.32
-51192.3
1024.87
-51525
999.424
-51849.2
973.987
-52165
948.566
-52472.3
923.166
-52771.1
897.795
-53061.5
872.46
-53343.5
847.168
-53617.1
821.924
-53882.3
796.735
-54139.1
771.608
-54387.6
746.549
-54627.7
721.563
-54859.6
696.657
-55083.2
671.836
-55298.5
647.107
-55505.7
622.474
-55704.7
597.943
-55895.5
573.52
-56078.3
549.209
-56252.9
525.016
-56419.6
500.945
-56578.3
477.002
-56729.1
453.19
-56872
429.515
-57007
405.981
-57134.3
382.592
-57253.8
359.352
-57365.6
336.266
-57469.8
313.336
-57566.5
290.568
-57655.5
267.964
-57737.2
245.528
-57811.4
223.263
-57878.2
201.173
-57937.8
179.261
-57990.1
157.529
-58035.2
135.98
-58073.2
114.618
-58104.2
93.4446
-58128.2
72.4624
-58145.3
51.6738
-58155.5
31.081
-58158.9
10.6862
-58155.6
-9.5088
-58145.7
-29.502
-58129.1
-49.2916
-58106
-68.8761
-58076.5
-88.2539
-58040.6
-107.424
-57998.4
-126.384
-57950
-145.134
-57895.3
-163.672
-57834.6
-181.997
-57767.9
-200.109
-57695.1
-218.007
-57616.5
-235.689
-57532.1
-253.156
-57442
-270.407
-57346.2
-287.442
-57244.7
-304.26
-57137.8
-320.861
-57025.4
-337.246
-56907.6
-353.413
-56784.5
-369.363
-56656.2
-385.096
-56522.7
-400.613
-56384.1
-415.914
-56240.5
-430.999
-56091.9
-445.868
-55938.5
-460.523
-55780.3
-474.963
-55617.3
-489.19
-55449.6
-503.204
-55277.4
-517.006
-55100.7
-530.597
-54919.5
-543.978
-54733.9
-557.149
-54544
-570.113
-54349.8
-582.869
-54151.5
-595.42
-53949.1
-607.765
-53742.6
-619.908
-53532.2
-631.849
-53317.8
-643.588
-53099.7
-655.129
-52877.7
-666.472
-52652
-677.618
-52422.7
-688.57
-52189.8
-699.328
-51953.4
-709.895
-51713.6
-720.271
-51470.3
-730.46
-51223.8
-740.462
-50973.9
-750.279
-50720.9
-759.912
-50464.7
-769.365
-50205.4
-778.638
-49943.2
-787.733
-49677.9
-796.653
-49409.7
-805.398
-49138.7
-813.972
-48864.9
-822.375
-48588.4
-830.61
-48309.1
-838.679
-48027.3
-846.584
-47742.8
-854.326
-47455.9
-861.908
-47166.5
-869.331
-46874.6
-876.598
-46580.4
-883.711
-46283.9
-890.671
-45985.1
-897.481
-45684.2
-904.143
-45381
-910.659
-45075.7
-917.03
-44768.4
-923.259
-44459
-929.348
-44147.7
-935.298
-43834.4
-941.113
-43519.2
-946.793
-43202.2
-952.341
-42883.4
-957.759
-42562.8
-963.049
-42240.6
-968.213
-41916.6
-973.253
-41591
-978.171
-41263.8
-982.969
-40935.1
-987.649
-40604.9
-992.212
-40273.1
-996.662
-39940
-1001
-39605.4
-1005.23
-39269.5
-1009.34
-38932.2
-1013.36
-38593.6
-1017.26
-38253.8
-1021.07
-37912.7
-1024.77
-37570.5
-1028.38
-37227.1
-1031.88
-36882.5
-1035.3
-36536.9
-1038.62
-36190.1
-1041.84
-35842.4
-1044.98
-35493.6
-1048.03
-35143.8
-1051
-34793.1
-1053.87
-34441.5
-1056.67
-34088.9
-1059.38
-33735.5
-1062.02
-33381.3
-1064.58
-33026.2
-1067.06
-32670.3
-1069.47
-32313.6
-1071.8
-31956.2
-1074.06
-31598.1
-1076.25
-31239.3
-1078.38
-30879.7
-1080.44
-30519.6
-1082.43
-30158.8
-1084.36
-29797.3
-1086.23
-29435.3
-1088.03
-29072.7
-1089.78
-28709.5
-1091.47
-28345.8
-1093.1
-27981.6
-1094.68
-27616.8
-1096.2
-27251.6
-1097.68
-26885.9
-1099.1
-26519.8
-1100.47
-26153.2
-1101.79
-25786.2
-1103.07
-25418.8
-1104.3
-25051
-1105.48
-24682.8
-1106.62
-24314.2
-1107.72
-23945.3
-1108.78
-23576.1
-1109.8
-23206.6
-1110.78
-22836.7
-1111.72
-22466.5
-1112.63
-22096.1
-1113.5
-21725.4
-1114.34
-21354.4
-1115.14
-20983.1
-1115.91
-20611.6
-1116.65
-20239.9
-1117.35
-19868
-1118.03
-19495.8
-1118.68
-19123.5
-1119.31
-18750.9
-1119.9
-18378.2
-1120.47
-18005.2
-1121.02
-17632.1
-1121.54
-17258.9
-1122.03
-16885.5
-1122.51
-16511.9
-1122.96
-16138.2
-1123.39
-15764.4
-1123.8
-15390.4
-1124.2
-15016.3
-1124.57
-14642.1
-1124.93
-14267.8
-1125.26
-13893.4
-1125.58
-13518.8
-1125.89
-13144.2
-1126.18
-12769.5
-1126.45
-12394.7
-1126.71
-12019.9
-1126.96
-11644.9
-1127.19
-11269.9
-1127.41
-10894.8
-1127.62
-10519.6
-1127.82
-10144.4
-1128.01
-9769.17
-1128.18
-9393.84
-1128.35
-9018.47
-1128.5
-8643.05
-1128.65
-8267.58
-1128.79
-7892.08
-1128.92
-7516.53
-1129.04
-7140.94
-1129.15
-6765.32
-1129.26
-6389.67
-1129.36
-6013.99
-1129.46
-5638.28
-1129.55
-5262.54
-1129.63
-4886.77
-1129.71
-4510.98
-1129.79
-4135.17
-1129.86
-3759.33
-1129.93
-3383.48
-1129.99
-3007.6
-1130.06
-2631.7
-1130.12
-2255.79
-1130.17
-1879.85
-1130.22
-1503.91
-1130.27
-1127.94
-1130.31
-751.97
-1130.35
-375.987
-1130.37
-1130.39
-1189.93
4938.34
-2352.95
4810.05
-3466.24
4568.35
-4515.81
4260.93
-5497.42
3939.69
-6415.41
3646.43
-7279.63
3406.7
-8102.29
3228.95
-8895.33
3109.07
-9668.82
3035.9
-10430.4
2996.37
-11185.2
2978.52
-11936.5
2973.06
-12686.1
2973.54
-13434.7
2975.88
-14182.6
2977.79
-14929.7
2978.1
-15675.6
2976.37
-16420
2972.5
-17162.6
2966.59
-17902.8
2958.8
-18640.5
2949.33
-19375.2
2938.34
-20106.7
2925.98
-20834.6
2912.39
-21558.8
2897.68
-22278.9
2881.93
-22994.9
2865.23
-23706.3
2847.64
-24413.1
2829.22
-25115.1
2810.03
-25812
2790.1
-26503.8
2769.47
-27190.2
2748.18
-27871.1
2726.26
-28546.4
2703.74
-29215.9
2680.63
-29879.4
2656.97
-30536.9
2632.78
-31188.2
2608.07
-31833.2
2582.87
-32471.8
2557.19
-33103.8
2531.05
-33729.2
2504.47
-34347.8
2477.46
-34959.6
2450.04
-35564.4
2422.22
-36162.1
2394.02
-36752.7
2365.45
-37336.1
2336.53
-37912.1
2307.27
-38480.8
2277.67
-39042
2247.77
-39595.6
2217.56
-40141.6
2187.07
-40679.9
2156.3
-41210.5
2125.26
-41733.2
2093.97
-42248.1
2062.45
-42755
2030.69
-43253.9
1998.73
-43744.8
1966.56
-44227.6
1934.19
-44702.3
1901.65
-45168.8
1868.94
-45627.1
1836.07
-46077.1
1803.06
-46518.8
1769.91
-46952.3
1736.64
-47377.4
1703.26
-47794.1
1669.78
-48202.4
1636.2
-48602.4
1602.55
-48993.9
1568.83
-49376.9
1535.05
-49751.5
1501.22
-50117.7
1467.35
-50475.4
1433.46
-50824.6
1399.54
-51165.3
1365.62
-51497.6
1331.7
-51821.4
1297.79
-52136.7
1263.9
-52443.6
1230.04
-52742
1196.22
-53032
1162.45
-53313.5
1128.74
-53586.7
1095.09
-53851.5
1061.51
-54107.9
1028.02
-54355.9
994.611
-54595.7
961.306
-54827.1
928.107
-55050.3
895.022
-55265.3
862.059
-55472
829.225
-55670.6
796.527
-55861.1
763.973
-56043.4
731.569
-56217.7
699.321
-56384
667.238
-56542.4
635.324
-56692.8
603.586
-56835.3
572.03
-56970
540.662
-57096.9
509.488
-57216.1
478.513
-57327.6
447.742
-57431.4
417.182
-57527.7
386.835
-57616.5
356.708
-57697.8
326.806
-57771.7
297.131
-57838.2
267.69
-57897.5
238.485
-57949.5
209.522
-57994.3
180.803
-58032.1
152.333
-58062.8
124.114
-58086.5
96.1501
-58103.3
68.4446
-58113.3
41.0003
-58116.4
13.8199
-58112.9
-13.0938
-58102.7
-39.7385
-58085.9
-66.1118
-58062.6
-92.2114
-58032.9
-118.036
-57996.7
-143.582
-57954.3
-168.849
-57905.7
-193.836
-57850.8
-218.54
-57789.9
-242.961
-57723
-267.097
-57650.1
-290.947
-57571.3
-314.511
-57486.7
-337.787
-57396.4
-360.775
-57300.4
-383.475
-57198.9
-405.886
-57091.8
-428.008
-56979.2
-449.84
-56861.3
-471.383
-56738.1
-492.637
-56609.7
-513.602
-56476.1
-534.278
-56337.4
-554.666
-56193.7
-574.766
-56045.1
-594.58
-55891.5
-614.106
-55733.2
-633.347
-55570.2
-652.303
-55402.5
-670.976
-55230.2
-689.366
-55053.4
-707.475
-54872.2
-725.303
-54686.6
-742.853
-54496.6
-760.125
-54302.5
-777.121
-54104.1
-793.843
-53901.7
-810.292
-53695.2
-826.47
-53484.8
-842.378
-53270.5
-858.019
-53052.3
-873.395
-52830.4
-888.507
-52604.7
-903.357
-52375.5
-917.947
-52142.6
-932.28
-51906.3
-946.358
-51666.5
-960.182
-51423.3
-973.756
-51176.8
-987.08
-50927
-1000.16
-50674
-1012.99
-50417.9
-1025.59
-50158.8
-1037.94
-49896.6
-1050.05
-49631.4
-1061.94
-49363.4
-1073.59
-49092.5
-1085.01
-48818.8
-1096.2
-48542.3
-1107.17
-48263.2
-1117.92
-47981.5
-1128.45
-47697.2
-1138.76
-47410.4
-1148.86
-47121.1
-1158.75
-46829.5
-1168.43
-46535.4
-1177.91
-46239.1
-1187.18
-45940.5
-1196.25
-45639.6
-1205.12
-45336.7
-1213.8
-45031.6
-1222.29
-44724.4
-1230.58
-44415.2
-1238.69
-44104.1
-1246.62
-43791
-1254.36
-43476.1
-1261.93
-43159.3
-1269.32
-42840.7
-1276.53
-42520.3
-1283.58
-42198.3
-1290.46
-41874.6
-1297.17
-41549.2
-1303.72
-41222.3
-1310.11
-40893.8
-1316.34
-40563.8
-1322.42
-40232.3
-1328.34
-39899.4
-1334.12
-39565
-1339.75
-39229.4
-1345.23
-38892.4
-1350.58
-38554.1
-1355.78
-38214.5
-1360.85
-37873.7
-1365.78
-37531.7
-1370.58
-37188.6
-1375.25
-36844.3
-1379.79
-36499
-1384.21
-36152.5
-1388.51
-35805.1
-1392.69
-35456.6
-1396.75
-35107.1
-1400.69
-34756.7
-1404.53
-34405.4
-1408.25
-34053.2
-1411.86
-33700.1
-1415.37
-33346.1
-1418.78
-32991.4
-1422.08
-32635.8
-1425.28
-32279.5
-1428.39
-31922.4
-1431.4
-31564.6
-1434.32
-31206.1
-1437.15
-30846.9
-1439.89
-30487.1
-1442.54
-30126.6
-1445.11
-29765.5
-1447.6
-29403.8
-1450
-29041.5
-1452.33
-28678.7
-1454.58
-28315.4
-1456.75
-27951.5
-1458.85
-27587.1
-1460.88
-27222.2
-1462.84
-26856.9
-1464.73
-26491.1
-1466.55
-26124.9
-1468.31
-25758.2
-1470.01
-25391.2
-1471.65
-25023.8
-1473.23
-24656
-1474.74
-24287.8
-1476.21
-23919.3
-1477.62
-23550.4
-1478.97
-23181.2
-1480.28
-22811.8
-1481.53
-22442
-1482.73
-22071.9
-1483.89
-21701.6
-1485
-21331
-1486.07
-20960.1
-1487.1
-20589
-1488.08
-20217.7
-1489.02
-19846.1
-1489.92
-19474.4
-1490.79
-19102.4
-1491.61
-18730.2
-1492.41
-18357.9
-1493.16
-17985.3
-1493.89
-17612.7
-1494.58
-17239.8
-1495.24
-16866.8
-1495.87
-16493.6
-1496.47
-16120.3
-1497.05
-15746.9
-1497.6
-15373.3
-1498.12
-14999.6
-1498.61
-14625.8
-1499.08
-14251.9
-1499.53
-13877.9
-1499.96
-13503.8
-1500.37
-13129.6
-1500.75
-12755.3
-1501.12
-12380.9
-1501.46
-12006.4
-1501.79
-11631.9
-1502.1
-11257.3
-1502.39
-10882.6
-1502.67
-10507.9
-1502.93
-10133.1
-1503.18
-9758.24
-1503.41
-9383.34
-1503.63
-9008.38
-1503.84
-8633.37
-1504.03
-8258.33
-1504.21
-7883.24
-1504.39
-7508.11
-1504.55
-7132.94
-1504.7
-6757.74
-1504.84
-6382.51
-1504.97
-6007.24
-1505.1
-5631.95
-1505.22
-5256.63
-1505.33
-4881.29
-1505.44
-4505.92
-1505.54
-4130.53
-1505.64
-3755.11
-1505.73
-3379.68
-1505.81
-3004.22
-1505.9
-2628.75
-1505.98
-2253.26
-1506.05
-1877.75
-1506.12
-1502.22
-1506.18
-1126.68
-1506.24
-751.129
-1506.29
-375.568
-1506.32
-1506.35
-1159.44
6097.82
-2295.37
5946.01
-3388.43
5661.45
-4426.3
5298.85
-5404.53
4917.98
-6325.9
4567.86
-7198.07
4278.95
-8031.11
4062.07
-8835.19
3913.24
-9619.21
3820.02
-10390.1
3767.37
-11152.9
3741.35
-11910.7
3730.96
-12665.4
3728.41
-13418.2
3728.74
-14169.4
3729.04
-14919
3727.8
-15666.9
3724.37
-16412.9
3718.56
-17156.6
3710.41
-17897.8
3700.09
-18636.2
3687.78
-19371.4
3673.68
-20103.3
3657.94
-20831.5
3640.71
-21555.9
3622.12
-22276.1
3602.27
-22992.1
3581.26
-23703.5
3559.17
-24410.3
3536.05
-25112.2
3511.98
-25809
3487
-26500.6
3461.15
-27186.8
3434.49
-27867.5
3407.04
-28542.6
3378.85
-29211.8
3349.93
-29875.1
3320.32
-30532.3
3290.05
-31183.3
3259.15
-31828
3227.62
-32466.2
3195.5
-33097.9
3162.81
-33723
3129.57
-34341.2
3095.79
-34952.7
3061.5
-35557.1
3026.72
-36154.5
2991.46
-36744.7
2955.74
-37327.7
2919.58
-37903.4
2882.99
-38471.7
2846
-39032.5
2808.61
-39585.7
2770.85
-40131.3
2732.72
-40669.2
2694.25
-41199.4
2655.46
-41721.7
2616.34
-42236.2
2576.93
-42742.7
2537.24
-43241.2
2497.28
-43731.7
2457.06
-44214
2416.61
-44688.3
2375.93
-45154.4
2335.04
-45612.2
2293.96
-46061.8
2252.7
-46503.1
2211.26
-46936.2
2169.68
-47360.8
2127.95
-47777.1
2086.1
-48185
2044.14
-48584.5
2002.07
-48975.6
1959.92
-49358.2
1917.7
-49732.4
1875.42
-50098.1
1833.09
-50455.4
1790.72
-50804.1
1748.34
-51144.5
1705.94
-51476.3
1663.54
-51799.6
1621.16
-52114.5
1578.81
-52421
1536.49
-52719
1494.22
-53008.5
1452.02
-53289.7
1409.88
-53562.4
1367.82
-53826.7
1325.86
-54082.7
1284
-54330.4
1242.26
-54569.7
1200.63
-54800.7
1159.14
-55023.5
1117.8
-55238.1
1076.6
-55444.4
1035.57
-55642.6
994.707
-55832.6
954.024
-56014.6
913.529
-56188.5
873.231
-56354.4
833.137
-56512.4
793.256
-56662.4
753.595
-56804.5
714.162
-56938.9
674.965
-57065.4
636.009
-57184.2
597.303
-57295.3
558.852
-57398.8
520.664
-57494.8
482.744
-57583.2
445.098
-57664.1
407.733
-57737.7
370.654
-57803.9
333.866
-57862.8
297.374
-57914.5
261.184
-57959
225.299
-57996.4
189.725
-58026.8
154.466
-58050.2
119.527
-58066.7
84.9094
-58076.3
50.6189
-58079.2
16.6584
-58075.4
-16.9687
-58064.9
-50.2593
-58047.8
-83.2106
-58024.3
-115.82
-57994.2
-148.084
-57957.9
-180.002
-57915.2
-211.57
-57866.3
-242.788
-57811.2
-273.652
-57750.1
-304.162
-57682.9
-334.316
-57609.8
-364.113
-57530.8
-393.552
-57446
-422.631
-57355.5
-451.35
-57259.3
-479.709
-57157.5
-507.706
-57050.3
-535.342
-56937.5
-562.616
-56819.5
-589.529
-56696.1
-616.08
-56567.5
-642.27
-56433.7
-668.099
-56294.9
-693.567
-56151
-718.676
-56002.3
-743.426
-55848.6
-767.818
-55690.2
-791.853
-55527
-815.533
-55359.2
-838.857
-55186.8
-861.829
-55010
-884.449
-54828.6
-906.718
-54642.9
-928.639
-54452.9
-950.213
-54258.7
-971.443
-54060.3
-992.329
-53857.8
-1012.87
-53651.3
-1033.08
-53440.8
-1052.95
-53226.4
-1072.49
-53008.2
-1091.69
-52786.3
-1110.57
-52560.6
-1129.11
-52331.3
-1147.34
-52098.5
-1165.24
-51862.1
-1182.82
-51622.3
-1200.09
-51379.2
-1217.04
-51132.7
-1233.68
-50882.9
-1250.01
-50630
-1266.04
-50374
-1281.77
-50114.8
-1297.19
-49852.7
-1312.33
-49587.6
-1327.16
-49319.6
-1341.71
-49048.7
-1355.98
-48775.1
-1369.96
-48498.8
-1383.65
-48219.8
-1397.08
-47938.1
-1410.23
-47653.9
-1423.1
-47367.2
-1435.72
-47078.1
-1448.06
-46786.5
-1460.15
-46492.6
-1471.98
-46196.4
-1483.56
-45897.9
-1494.88
-45597.2
-1505.96
-45294.4
-1516.8
-44989.4
-1527.4
-44682.4
-1537.76
-44373.4
-1547.88
-44062.4
-1557.78
-43749.5
-1567.45
-43434.7
-1576.89
-43118.1
-1586.12
-42799.7
-1595.13
-42479.5
-1603.92
-42157.7
-1612.51
-41834.1
-1620.89
-41509
-1629.07
-41182.2
-1637.04
-40854
-1644.82
-40524.2
-1652.41
-40192.9
-1659.81
-39860.2
-1667.02
-39526.1
-1674.04
-39190.7
-1680.89
-38853.9
-1687.56
-38515.8
-1694.06
-38176.5
-1700.38
-37836
-1706.54
-37494.3
-1712.53
-37151.4
-1718.36
-36807.4
-1724.03
-36462.3
-1729.55
-36116.1
-1734.91
-35768.9
-1740.12
-35420.7
-1745.19
-35071.5
-1750.12
-34721.4
-1754.9
-34370.3
-1759.55
-34018.4
-1764.06
-33665.6
-1768.44
-33311.9
-1772.68
-32957.5
-1776.81
-32602.2
-1780.8
-32246.2
-1784.68
-31889.4
-1788.44
-31531.9
-1792.08
-31173.7
-1795.61
-30814.9
-1799.03
-30455.3
-1802.34
-30095.2
-1805.54
-29734.4
-1808.64
-29373
-1811.64
-29011.1
-1814.55
-28648.6
-1817.35
-28285.6
-1820.06
-27922
-1822.68
-27558
-1825.21
-27193.5
-1827.66
-26828.5
-1830.02
-26463.1
-1832.29
-26097.2
-1834.49
-25730.9
-1836.61
-25364.2
-1838.65
-24997.1
-1840.61
-24629.7
-1842.51
-24261.8
-1844.33
-23893.7
-1846.09
-23525.2
-1847.78
-23156.4
-1849.41
-22787.3
-1850.97
-22417.9
-1852.47
-22048.2
-1853.91
-21678.2
-1855.3
-21308
-1856.63
-20937.5
-1857.91
-20566.8
-1859.13
-20195.8
-1860.31
-19824.6
-1861.43
-19453.2
-1862.51
-19081.7
-1863.54
-18709.9
-1864.53
-18337.9
-1865.47
-17965.8
-1866.37
-17593.5
-1867.23
-17221
-1868.06
-16848.4
-1868.84
-16475.6
-1869.59
-16102.7
-1870.31
-15729.7
-1870.99
-15356.5
-1871.64
-14983.2
-1872.26
-14609.8
-1872.85
-14236.3
-1873.41
-13862.7
-1873.94
-13489
-1874.44
-13115.2
-1874.92
-12741.3
-1875.37
-12367.3
-1875.8
-11993.2
-1876.21
-11619.1
-1876.6
-11244.9
-1876.96
-10870.6
-1877.31
-10496.3
-1877.63
-10121.9
-1877.94
-9747.46
-1878.23
-9372.96
-1878.5
-8998.41
-1878.76
-8623.82
-1879
-8249.18
-1879.23
-7874.5
-1879.44
-7499.79
-1879.64
-7125.04
-1879.83
-6750.25
-1880.01
-6375.43
-1880.18
-6000.58
-1880.33
-5625.7
-1880.48
-5250.8
-1880.62
-4875.87
-1880.75
-4500.92
-1880.88
-4125.94
-1881
-3750.94
-1881.11
-3375.92
-1881.22
-3000.89
-1881.32
-2625.83
-1881.42
-2250.75
-1881.51
-1875.66
-1881.6
-1500.55
-1881.68
-1125.43
-1881.75
-750.293
-1881.81
-375.149
-1881.85
-1881.88
-1129.62
7227.46
-2239.05
7055.47
-3312.06
6734.51
-4337.89
6324.74
-5312.02
5892.17
-6235.89
5491.81
-7115.23
5158.37
-7958.08
4905
-8772.94
4728.18
-9567.51
4614.67
-10348
4547.97
-11119.1
4512.51
-11883.9
4495.85
-12644.4
4489.04
-13401.8
4486.26
-14156.7
4484.05
-14909.4
4480.52
-15659.7
4474.79
-16407.6
4466.56
-17152.9
4455.8
-17895.4
4442.64
-18634.8
4427.25
-19370.8
4409.83
-20103.3
4390.54
-20832.1
4369.54
-21556.9
4346.97
-22277.4
4322.93
-22993.6
4297.53
-23705.2
4270.86
-24412.1
4242.99
-25114
4213.99
-25810.9
4183.92
-26502.5
4152.82
-27188.7
4120.75
-27869.3
4087.75
-28544.2
4053.86
-29213.4
4019.11
-29876.5
3983.54
-30533.6
3947.17
-31184.4
3910.05
-31828.9
3872.18
-32466.9
3833.61
-33098.4
3794.36
-33723.2
3754.44
-34341.3
3713.89
-34952.4
3672.72
-35556.6
3630.96
-36153.7
3588.63
-36743.7
3545.75
-37326.4
3502.34
-37901.8
3458.43
-38469.7
3414.02
-39030.2
3369.14
-39583.1
3323.81
-40128.4
3278.05
-40666
3231.88
-41195.8
3185.31
-41717.8
3138.37
-42231.9
3091.07
-42738.1
3043.43
-43236.2
2995.47
-43726.3
2947.21
-44208.3
2898.66
-44682.2
2849.84
-45147.9
2800.77
-45605.4
2751.46
-46054.6
2701.94
-46495.5
2652.22
-46928.1
2602.31
-47352.4
2552.24
-47768.3
2502.02
-48175.8
2451.66
-48574.9
2401.18
-48965.5
2350.6
-49347.7
2299.93
-49721.5
2249.2
-50086.8
2198.4
-50443.6
2147.56
-50792
2096.7
-51131.8
2045.83
-51463.2
1994.96
-51786.2
1944.1
-52100.6