/*--------------------------------*- C++ -*----------------------------------*\
| =========                 |                                                 |
| \\      /  F ield         | OpenFOAM: The Open Source CFD Toolbox           |
|  \\    /   O peration     | Version:  2212                                  |
|   \\  /    A nd           | Website:  www.openfoam.com                      |
|    \\/     M anipulation  |                                                 |
\*---------------------------------------------------------------------------*/
FoamFile
{
    version     2.0;
    format      ascii;
    arch        "LSB;label=32;scalar=64";
    class       volScalarField;
    location    "310";
    object      p_rgh_0;
}
// * * * * * * * * * * * * * * * * * * * * * * * * * * * * * * * * * * * * * //

dimensions      [1 -1 -2 0 0 0 0];

internalField   nonuniform List<scalar> 
204800
(
13.021
13.0137
12.9995
12.9783
12.9502
12.9154
12.8742
12.8267
12.7732
12.714
12.6493
12.5795
12.505
12.4261
12.3433
12.2568
12.1672
12.0747
11.9799
11.8829
11.7843
11.6844
11.5834
11.4818
11.3799
11.2778
11.176
11.0747
10.9741
10.8744
10.7759
10.6788
10.5833
10.4896
10.3979
10.3083
10.221
10.1362
10.054
9.97456
9.89804
9.82456
9.75423
9.68718
9.6235
9.5633
9.50667
9.45369
9.40444
9.35899
9.31742
9.27977
9.24612
9.21649
9.19095
9.16953
9.15225
9.13915
9.13026
9.12558
9.12514
9.12894
9.13698
9.14926
9.16579
9.18654
9.2115
9.24066
9.274
9.31148
9.35308
9.39877
9.44851
9.50225
9.55997
9.6216
9.6871
9.75643
9.82952
9.90632
9.98677
10.0708
10.1584
10.2494
10.3439
10.4416
10.5427
10.6469
10.7542
10.8646
10.978
11.0942
11.2133
11.3352
11.4597
11.5868
11.7164
11.8485
11.9829
12.1197
12.2586
12.3997
12.5428
12.688
12.835
12.9839
13.1345
13.2868
13.4408
13.5962
13.7532
13.9115
14.0712
14.2321
14.3942
14.5574
14.7216
14.8869
15.0531
15.2201
15.3879
15.5565
15.7257
15.8955
16.0659
16.2368
16.4082
16.5799
16.752
16.9243
17.0969
17.2697
17.4426
17.6155
17.7885
17.9615
18.1345
18.3074
18.4801
18.6526
18.825
18.997
19.1688
19.3403
19.5114
19.6821
19.8523
20.0221
20.1914
20.3602
20.5285
20.6961
20.8631
21.0295
21.1953
21.3603
21.5247
21.6883
21.8512
22.0133
22.1746
22.335
22.4947
22.6535
22.8114
22.9684
23.1246
23.2798
23.4341
23.5874
23.7398
23.8912
24.0416
24.191
24.3395
24.4869
24.6333
24.7786
24.9229
25.0662
25.2084
25.3495
25.4896
25.6285
25.7664
25.9032
26.0389
26.1735
26.307
26.4393
26.5706
26.7007
26.8297
26.9576
27.0843
27.2099
27.3344
27.4577
27.5799
27.701
27.8209
27.9397
28.0573
28.1738
28.2892
28.4034
28.5165
28.6284
28.7392
28.8488
28.9574
29.0647
29.171
29.2761
29.3801
29.4829
29.5847
29.6853
29.7847
29.8831
29.9803
30.0764
30.1714
30.2653
30.3581
30.4498
30.5403
30.6298
30.7181
30.8054
30.8916
30.9767
31.0607
31.1436
31.2254
31.3062
31.3859
31.4645
31.542
31.6185
31.6939
31.7683
31.8416
31.9139
31.9851
32.0552
32.1244
32.1925
32.2595
32.3256
32.3906
32.4546
32.5175
32.5795
32.6404
32.7004
32.7593
32.8172
32.8742
32.9301
32.9851
33.039
33.092
33.144
33.195
33.2451
33.2941
33.3422
33.3894
33.4356
33.4808
33.525
33.5684
33.6107
33.6521
33.6926
33.7321
33.7707
33.8084
33.8451
33.8809
33.9157
33.9497
33.9827
34.0148
34.0459
34.0762
34.1055
34.134
34.1615
34.1881
34.2138
34.2386
34.2625
34.2855
34.3076
34.3288
34.3491
34.3685
34.387
34.4047
34.4214
34.4372
34.4522
34.4663
34.4795
34.4918
34.5032
34.5138
34.5234
34.5322
34.5401
34.5471
34.5533
34.5585
34.5629
34.5664
34.569
34.5708
34.5717
13.0337
13.0259
13.0105
12.9876
12.9574
12.9202
12.8762
12.8257
12.7691
12.7068
12.6391
12.5665
12.4894
12.4081
12.3232
12.2349
12.1437
12.05
11.9541
11.8563
11.7571
11.6567
11.5555
11.4537
11.3516
11.2496
11.1479
11.0467
10.9462
10.8467
10.7484
10.6515
10.5563
10.4628
10.3713
10.2819
10.1948
10.1102
10.0283
9.94905
9.87274
9.79946
9.72933
9.66246
9.59896
9.53893
9.48246
9.42964
9.38054
9.33524
9.2938
9.25628
9.22274
9.19323
9.16779
9.14646
9.12927
9.11625
9.10743
9.10281
9.10242
9.10627
9.11435
9.12666
9.1432
9.16397
9.18894
9.2181
9.25142
9.28889
9.33046
9.37612
9.42581
9.47951
9.53716
9.59873
9.66416
9.73341
9.80641
9.88312
9.96347
10.0474
10.1349
10.2258
10.3201
10.4177
10.5186
10.6227
10.7299
10.8401
10.9533
11.0694
11.1883
11.3099
11.4343
11.5612
11.6906
11.8225
11.9567
12.0932
12.232
12.3728
12.5158
12.6607
12.8075
12.9561
13.1065
13.2585
13.4122
13.5674
13.7241
13.8822
14.0416
14.2022
14.364
14.527
14.691
14.8559
15.0218
15.1886
15.3561
15.5244
15.6933
15.8629
16.033
16.2036
16.3746
16.5461
16.7178
16.8899
17.0621
17.2346
17.4072
17.5799
17.7526
17.9253
18.0979
18.2705
18.4429
18.6151
18.7872
18.9589
19.1304
19.3015
19.4723
19.6427
19.8127
19.9822
20.1512
20.3196
20.4876
20.6549
20.8217
20.9878
21.1532
21.3179
21.482
21.6453
21.8079
21.9697
22.1307
22.2908
22.4502
22.6087
22.7663
22.9231
23.0789
23.2338
23.3878
23.5409
23.693
23.8441
23.9942
24.1434
24.2916
24.4387
24.5848
24.7299
24.8739
25.0169
25.1588
25.2997
25.4395
25.5782
25.7158
25.8523
25.9878
26.1221
26.2553
26.3874
26.5184
26.6483
26.7771
26.9047
27.0312
27.1566
27.2808
27.4039
27.5259
27.6467
27.7664
27.8849
28.0023
28.1186
28.2337
28.3477
28.4606
28.5723
28.6829
28.7923
28.9006
29.0078
29.1139
29.2188
29.3226
29.4252
29.5267
29.6271
29.7264
29.8246
29.9216
30.0175
30.1124
30.2061
30.2987
30.3902
30.4805
30.5698
30.658
30.7451
30.8311
30.916
30.9999
31.0826
31.1643
31.2449
31.3244
31.4029
31.4803
31.5566
31.6319
31.7061
31.7793
31.8514
31.9225
31.9925
32.0615
32.1295
32.1964
32.2623
32.3272
32.3911
32.4539
32.5157
32.5766
32.6364
32.6952
32.753
32.8098
32.8657
32.9205
32.9744
33.0272
33.0791
33.13
33.18
33.229
33.277
33.324
33.3701
33.4152
33.4594
33.5026
33.5449
33.5863
33.6266
33.6661
33.7046
33.7422
33.7788
33.8146
33.8493
33.8832
33.9162
33.9482
33.9793
34.0095
34.0388
34.0671
34.0946
34.1212
34.1468
34.1716
34.1954
34.2184
34.2404
34.2616
34.2819
34.3012
34.3197
34.3373
34.354
34.3698
34.3848
34.3988
34.412
34.4243
34.4357
34.4462
34.4558
34.4646
34.4725
34.4795
34.4856
34.4909
34.4952
34.4987
34.5014
34.5031
34.504
13.0083
13.0006
12.9853
12.9627
12.9328
12.8958
12.8522
12.8021
12.7459
12.6839
12.6167
12.5445
12.4677
12.3869
12.3023
12.2144
12.1236
12.0301
11.9345
11.8371
11.7381
11.638
11.537
11.4355
11.3337
11.2319
11.1303
11.0293
10.929
10.8297
10.7316
10.6349
10.5398
10.4465
10.3552
10.266
10.1791
10.0946
10.0128
9.93373
9.85757
9.78444
9.71445
9.64772
9.58436
9.52447
9.46814
9.41545
9.36648
9.32131
9.27999
9.2426
9.20919
9.1798
9.15448
9.13326
9.11619
9.10329
9.09458
9.09008
9.0898
9.09376
9.10195
9.11437
9.13102
9.15189
9.17697
9.20623
9.23966
9.27723
9.3189
9.36466
9.41445
9.46824
9.526
9.58766
9.65318
9.72252
9.79562
9.87242
9.95286
10.0369
10.1244
10.2154
10.3098
10.4075
10.5085
10.6127
10.7199
10.8302
10.9435
11.0597
11.1786
11.3004
11.4248
11.5517
11.6812
11.8132
11.9475
12.0841
12.2229
12.3638
12.5067
12.6517
12.7986
12.9472
13.0977
13.2498
13.4035
13.5588
13.7155
13.8736
14.033
14.1937
14.3556
14.5186
14.6826
14.8476
15.0135
15.1803
15.3478
15.5161
15.6851
15.8547
16.0248
16.1954
16.3665
16.5379
16.7097
16.8818
17.0541
17.2265
17.3991
17.5718
17.7445
17.9172
18.0899
18.2624
18.4348
18.6071
18.7791
18.9509
19.1223
19.2935
19.4642
19.6346
19.8046
19.9741
20.143
20.3115
20.4794
20.6467
20.8135
20.9795
21.145
21.3097
21.4737
21.637
21.7996
21.9613
22.1223
22.2825
22.4418
22.6003
22.7579
22.9146
23.0704
23.2253
23.3793
23.5323
23.6844
23.8355
23.9856
24.1347
24.2828
24.4299
24.576
24.7211
24.8651
25.008
25.1499
25.2907
25.4305
25.5692
25.7068
25.8433
25.9787
26.113
26.2461
26.3782
26.5092
26.639
26.7677
26.8953
27.0218
27.1471
27.2713
27.3944
27.5163
27.6371
27.7568
27.8753
27.9927
28.1089
28.224
28.338
28.4508
28.5625
28.673
28.7824
28.8907
28.9978
29.1038
29.2087
29.3125
29.4151
29.5166
29.6169
29.7162
29.8143
29.9113
30.0072
30.102
30.1957
30.2882
30.3797
30.47
30.5593
30.6475
30.7345
30.8205
30.9054
30.9892
31.0719
31.1536
31.2341
31.3136
31.3921
31.4694
31.5457
31.621
31.6952
31.7683
31.8404
31.9114
31.9814
32.0504
32.1184
32.1853
32.2511
32.316
32.3798
32.4427
32.5045
32.5653
32.6251
32.6839
32.7417
32.7985
32.8543
32.9091
32.9629
33.0158
33.0676
33.1185
33.1685
33.2174
33.2654
33.3124
33.3585
33.4036
33.4478
33.491
33.5333
33.5746
33.6149
33.6544
33.6929
33.7304
33.7671
33.8028
33.8376
33.8714
33.9043
33.9364
33.9675
33.9976
34.0269
34.0553
34.0827
34.1093
34.1349
34.1596
34.1835
34.2064
34.2285
34.2496
34.2699
34.2892
34.3077
34.3253
34.342
34.3578
34.3727
34.3868
34.3999
34.4122
34.4236
34.4341
34.4438
34.4525
34.4604
34.4674
34.4735
34.4788
34.4832
34.4867
34.4893
34.4911
34.4919
12.9859
12.978
12.9623
12.939
12.9082
12.8702
12.8253
12.774
12.7164
12.6532
12.5847
12.5113
12.4334
12.3515
12.2661
12.1774
12.0859
11.992
11.8961
11.7983
11.6992
11.599
11.4981
11.3966
11.295
11.1933
11.092
10.9913
10.8913
10.7923
10.6945
10.5981
10.5033
10.4103
10.3193
10.2304
10.1438
10.0597
9.97821
9.89945
9.82359
9.75075
9.68105
9.61461
9.55152
9.4919
9.43583
9.38339
9.33467
9.28973
9.24865
9.21148
9.17829
9.14911
9.12399
9.10298
9.0861
9.07338
9.06485
9.06052
9.06041
9.06452
9.07286
9.08543
9.10222
9.12322
9.14842
9.17781
9.21135
9.24902
9.2908
9.33665
9.38653
9.44041
9.49823
9.55997
9.62556
9.69496
9.7681
9.84495
9.92543
10.0095
10.0971
10.1881
10.2825
10.3802
10.4812
10.5854
10.6926
10.8029
10.9162
11.0323
11.1513
11.273
11.3973
11.5243
11.6537
11.7856
11.9199
12.0564
12.1951
12.3359
12.4789
12.6237
12.7705
12.9191
13.0694
13.2215
13.3751
13.5302
13.6869
13.8448
14.0042
14.1647
14.3265
14.4893
14.6532
14.8181
14.9838
15.1505
15.3179
15.486
15.6549
15.8243
15.9942
16.1647
16.3356
16.5069
16.6785
16.8504
17.0225
17.1948
17.3672
17.5397
17.7122
17.8847
18.0572
18.2296
18.4018
18.5739
18.7457
18.9173
19.0885
19.2595
19.4301
19.6002
19.77
19.9393
20.1081
20.2763
20.444
20.6111
20.7777
20.9435
21.1088
21.2733
21.4371
21.6002
21.7625
21.9241
22.0849
22.2448
22.4039
22.5622
22.7196
22.8761
23.0317
23.1864
23.3401
23.493
23.6448
23.7957
23.9456
24.0945
24.2425
24.3894
24.5352
24.6801
24.8239
24.9666
25.1083
25.2489
25.3885
25.527
25.6644
25.8007
25.9359
26.07
26.203
26.3348
26.4656
26.5953
26.7238
26.8512
26.9775
27.1026
27.2266
27.3495
27.4713
27.5919
27.7113
27.8297
27.9469
28.0629
28.1778
28.2916
28.4043
28.5158
28.6262
28.7354
28.8435
28.9505
29.0563
29.161
29.2646
29.3671
29.4684
29.5686
29.6677
29.7657
29.8625
29.9583
30.0529
30.1464
30.2389
30.3302
30.4204
30.5095
30.5975
30.6844
30.7703
30.855
30.9387
31.0213
31.1028
31.1832
31.2626
31.3409
31.4181
31.4943
31.5694
31.6435
31.7165
31.7885
31.8594
31.9293
31.9982
32.066
32.1328
32.1986
32.2633
32.3271
32.3898
32.4515
32.5122
32.5719
32.6306
32.6883
32.745
32.8007
32.8554
32.9092
32.9619
33.0137
33.0645
33.1144
33.1633
33.2112
33.2581
33.3041
33.3492
33.3932
33.4364
33.4786
33.5198
33.5601
33.5995
33.6379
33.6754
33.712
33.7476
33.7823
33.8161
33.849
33.881
33.912
33.9422
33.9714
33.9997
34.0271
34.0536
34.0792
34.1039
34.1277
34.1506
34.1726
34.1937
34.2139
34.2333
34.2517
34.2693
34.2859
34.3017
34.3166
34.3307
34.3438
34.356
34.3674
34.3779
34.3875
34.3963
34.4042
34.4111
34.4173
34.4225
34.4269
34.4304
34.433
34.4347
34.4356
12.9364
12.9287
12.9133
12.8904
12.8601
12.8228
12.7786
12.728
12.6714
12.609
12.5413
12.4687
12.3917
12.3107
12.226
12.1381
12.0473
11.9541
11.8587
11.7616
11.663
11.5633
11.4629
11.3619
11.2606
11.1594
11.0585
10.9581
10.8585
10.7599
10.6624
10.5664
10.4719
10.3793
10.2886
10.2
10.1137
10.0299
9.94867
9.87021
9.79463
9.72207
9.65265
9.58648
9.52366
9.4643
9.40849
9.35631
9.30784
9.26316
9.22232
9.1854
9.15244
9.1235
9.09863
9.07785
9.0612
9.04871
9.0404
9.0363
9.03641
9.04075
9.04931
9.0621
9.0791
9.10032
9.12574
9.15533
9.18908
9.22697
9.26895
9.31501
9.36509
9.41917
9.4772
9.53913
9.60492
9.67451
9.74785
9.82489
9.90556
9.98981
10.0776
10.1688
10.2634
10.3613
10.4624
10.5667
10.6742
10.7846
10.8981
11.0144
11.1335
11.2554
11.3799
11.507
11.6366
11.7686
11.903
12.0397
12.1785
12.3195
12.4625
12.6075
12.7544
12.9032
13.0536
13.2058
13.3595
13.5148
13.6715
13.8296
13.989
14.1497
14.3115
14.4744
14.6384
14.8034
14.9692
15.136
15.3035
15.4717
15.6406
15.81
15.9801
16.1506
16.3216
16.4929
16.6646
16.8365
17.0086
17.181
17.3534
17.526
17.6985
17.8711
18.0436
18.216
18.3882
18.5603
18.7322
18.9037
19.075
19.246
19.4166
19.5868
19.7565
19.9258
20.0946
20.2629
20.4306
20.5977
20.7642
20.9301
21.0953
21.2598
21.4236
21.5867
21.749
21.9105
22.0713
22.2312
22.3903
22.5485
22.7059
22.8624
23.0179
23.1726
23.3263
23.4791
23.6309
23.7818
23.9317
24.0805
24.2284
24.3753
24.5211
24.6659
24.8097
24.9524
25.094
25.2346
25.3741
25.5126
25.6499
25.7861
25.9213
26.0554
26.1883
26.3201
26.4508
26.5804
26.7089
26.8363
26.9625
27.0876
27.2116
27.3344
27.4561
27.5766
27.6961
27.8143
27.9315
28.0475
28.1624
28.2761
28.3887
28.5001
28.6105
28.7196
28.8277
28.9346
29.0404
29.1451
29.2486
29.351
29.4523
29.5524
29.6515
29.7494
29.8462
29.9419
30.0365
30.1299
30.2223
30.3136
30.4037
30.4928
30.5808
30.6676
30.7534
30.8381
30.9218
31.0043
31.0858
31.1662
31.2455
31.3237
31.4009
31.4771
31.5521
31.6262
31.6991
31.7711
31.842
31.9118
31.9806
32.0484
32.1152
32.1809
32.2456
32.3093
32.372
32.4336
32.4943
32.554
32.6126
32.6703
32.727
32.7826
32.8373
32.891
32.9438
32.9955
33.0463
33.0961
33.145
33.1928
33.2398
33.2857
33.3307
33.3748
33.4179
33.4601
33.5013
33.5415
33.5809
33.6193
33.6568
33.6933
33.7289
33.7636
33.7974
33.8303
33.8622
33.8932
33.9233
33.9525
33.9808
34.0082
34.0347
34.0603
34.085
34.1088
34.1316
34.1536
34.1747
34.1949
34.2143
34.2327
34.2502
34.2669
34.2827
34.2976
34.3116
34.3247
34.3369
34.3483
34.3588
34.3684
34.3772
34.385
34.392
34.3981
34.4034
34.4077
34.4112
34.4138
34.4156
34.4165
12.885
12.8773
12.8618
12.8388
12.8085
12.771
12.7267
12.6759
12.6191
12.5565
12.4887
12.4161
12.339
12.2579
12.1732
12.0854
11.9947
11.9016
11.8064
11.7096
11.6113
11.5119
11.4117
11.3111
11.2102
11.1094
11.0089
10.909
10.8098
10.7116
10.6146
10.519
10.425
10.3328
10.2425
10.1543
10.0685
9.98508
9.90428
9.82623
9.75106
9.6789
9.60986
9.54407
9.48163
9.42264
9.36719
9.31537
9.26725
9.2229
9.1824
9.14581
9.11318
9.08455
9.05998
9.03951
9.02316
9.01096
9.00294
8.99912
8.99951
9.00411
9.01294
9.02599
9.04325
9.06472
9.09038
9.12021
9.1542
9.19231
9.23452
9.2808
9.3311
9.38539
9.44362
9.50576
9.57174
9.64152
9.71505
9.79227
9.87312
9.95753
10.0455
10.1368
10.2316
10.3296
10.4309
10.5354
10.643
10.7536
10.8671
10.9835
11.1028
11.2247
11.3494
11.4766
11.6063
11.7384
11.8729
12.0096
12.1485
12.2896
12.4327
12.5778
12.7247
12.8735
13.024
13.1762
13.33
13.4852
13.642
13.8001
13.9595
14.1202
14.282
14.445
14.609
14.7739
14.9398
15.1065
15.2739
15.4421
15.611
15.7804
15.9504
16.1209
16.2918
16.4631
16.6347
16.8066
16.9787
17.151
17.3233
17.4958
17.6683
17.8408
18.0132
18.1855
18.3577
18.5296
18.7014
18.8729
19.0441
19.2149
19.3854
19.5555
19.7251
19.8943
20.063
20.2311
20.3987
20.5657
20.7321
20.8978
21.0629
21.2273
21.391
21.5539
21.7161
21.8775
22.0381
22.1979
22.3569
22.5149
22.6722
22.8285
22.9839
23.1385
23.292
23.4447
23.5964
23.7471
23.8968
24.0455
24.1933
24.34
24.4857
24.6303
24.7739
24.9165
25.058
25.1984
25.3378
25.476
25.6132
25.7493
25.8843
26.0182
26.151
26.2827
26.4133
26.5427
26.6711
26.7983
26.9243
27.0493
27.1731
27.2958
27.4173
27.5377
27.657
27.7751
27.8921
28.008
28.1227
28.2363
28.3488
28.4601
28.5703
28.6793
28.7872
28.894
28.9997
29.1042
29.2076
29.3098
29.411
29.511
29.6099
29.7077
29.8044
29.9
29.9944
30.0878
30.18
30.2711
30.3612
30.4501
30.538
30.6247
30.7104
30.795
30.8785
30.9609
31.0423
31.1225
31.2017
31.2799
31.357
31.433
31.508
31.5819
31.6548
31.7266
31.7974
31.8671
31.9358
32.0035
32.0702
32.1358
32.2005
32.2641
32.3266
32.3882
32.4488
32.5084
32.5669
32.6245
32.6811
32.7367
32.7913
32.8449
32.8976
32.9493
33
33.0497
33.0985
33.1463
33.1931
33.239
33.284
33.328
33.371
33.4131
33.4543
33.4945
33.5338
33.5721
33.6095
33.646
33.6816
33.7162
33.75
33.7828
33.8147
33.8456
33.8757
33.9049
33.9331
33.9605
33.9869
34.0124
34.0371
34.0608
34.0837
34.1056
34.1267
34.1469
34.1662
34.1846
34.2021
34.2187
34.2345
34.2494
34.2633
34.2765
34.2887
34.3
34.3105
34.3201
34.3288
34.3367
34.3437
34.3498
34.355
34.3594
34.3628
34.3655
34.3672
34.3681
12.8137
12.8062
12.7911
12.7687
12.739
12.7024
12.6591
12.6094
12.5537
12.4923
12.4257
12.3543
12.2784
12.1985
12.1149
12.0282
11.9385
11.8464
11.7521
11.6561
11.5586
11.46
11.3605
11.2606
11.1604
11.0602
10.9603
10.8609
10.7622
10.6646
10.5681
10.4729
10.3794
10.2877
10.1978
10.1102
10.0247
9.94179
9.86142
9.78379
9.70903
9.63728
9.56865
9.50326
9.44122
9.38261
9.32754
9.2761
9.22835
9.18437
9.14424
9.108
9.07573
9.04746
9.02324
9.00311
8.9871
8.97525
8.96757
8.96409
8.96481
8.96975
8.97891
8.99228
9.00987
9.03167
9.05765
9.08781
9.12211
9.16055
9.20307
9.24966
9.30028
9.35488
9.41342
9.47586
9.54215
9.61223
9.68606
9.76357
9.84472
9.92943
10.0176
10.1093
10.2043
10.3027
10.4043
10.509
10.6168
10.7277
10.8415
10.9582
11.0777
11.1999
11.3248
11.4523
11.5822
11.7146
11.8493
11.9863
12.1254
12.2667
12.41
12.5553
12.7025
12.8515
13.0022
13.1546
13.3085
13.464
13.6209
13.7792
13.9388
14.0997
14.2617
14.4248
14.5889
14.754
14.92
15.0869
15.2545
15.4228
15.5918
15.7614
15.9315
16.1021
16.2731
16.4445
16.6162
16.7882
16.9604
17.1328
17.3052
17.4778
17.6504
17.8229
17.9954
18.1678
18.34
18.512
18.6838
18.8554
19.0266
19.1975
19.3681
19.5382
19.7078
19.8771
20.0458
20.2139
20.3815
20.5485
20.7149
20.8807
21.0458
21.2102
21.3739
21.5368
21.699
21.8604
22.021
22.1808
22.3397
22.4978
22.655
22.8113
22.9667
23.1212
23.2748
23.4274
23.579
23.7297
23.8794
24.0281
24.1758
24.3225
24.4681
24.6127
24.7563
24.8988
25.0403
25.1807
25.32
25.4582
25.5953
25.7314
25.8664
26.0002
26.1329
26.2646
26.3951
26.5245
26.6528
26.7799
26.9059
27.0308
27.1546
27.2772
27.3987
27.519
27.6382
27.7563
27.8732
27.9891
28.1037
28.2172
28.3296
28.4409
28.551
28.66
28.7678
28.8746
28.9802
29.0846
29.188
29.2902
29.3912
29.4912
29.5901
29.6878
29.7844
29.8799
29.9743
30.0676
30.1598
30.2508
30.3408
30.4297
30.5175
30.6042
30.6898
30.7743
30.8578
30.9401
31.0214
31.1016
31.1808
31.2589
31.3359
31.4119
31.4868
31.5607
31.6335
31.7053
31.776
31.8457
31.9144
31.982
32.0486
32.1142
32.1788
32.2423
32.3049
32.3664
32.4269
32.4864
32.545
32.6025
32.659
32.7146
32.7692
32.8227
32.8754
32.927
32.9777
33.0274
33.0761
33.1239
33.1707
33.2165
33.2614
33.3054
33.3484
33.3904
33.4316
33.4718
33.511
33.5493
33.5867
33.6232
33.6587
33.6933
33.727
33.7598
33.7917
33.8226
33.8527
33.8818
33.91
33.9373
33.9638
33.9893
34.0139
34.0376
34.0605
34.0824
34.1034
34.1236
34.1429
34.1613
34.1788
34.1954
34.2111
34.226
34.24
34.2531
34.2653
34.2766
34.2871
34.2967
34.3054
34.3132
34.3202
34.3263
34.3315
34.3359
34.3394
34.342
34.3437
34.3446
12.738
12.7305
12.7156
12.6934
12.6641
12.6278
12.585
12.5358
12.4806
12.4199
12.3539
12.2831
12.2078
12.1286
12.0457
11.9595
11.8706
11.7791
11.6855
11.5901
11.4932
11.3953
11.2965
11.1971
11.0975
10.998
10.8987
10.7999
10.7018
10.6047
10.5088
10.4143
10.3213
10.2301
10.1409
10.0537
9.96886
9.88643
9.80659
9.72948
9.65524
9.58399
9.51586
9.45096
9.38939
9.33126
9.27666
9.22567
9.17837
9.13485
9.09515
9.05935
9.0275
8.99965
8.97585
8.95613
8.94054
8.92908
8.9218
8.91871
8.91982
8.92514
8.93468
8.94843
8.96639
8.98856
9.0149
9.04542
9.08008
9.11887
9.16174
9.20867
9.25963
9.31456
9.37344
9.43621
9.50282
9.57322
9.64737
9.72519
9.80664
9.89166
9.98017
10.0721
10.1674
10.2661
10.3679
10.4729
10.5811
10.6922
10.8063
10.9232
11.043
11.1654
11.2905
11.4182
11.5484
11.681
11.8159
11.9531
12.0925
12.234
12.3775
12.5229
12.6703
12.8195
12.9703
13.1229
13.277
13.4327
13.5897
13.7482
13.9079
14.0689
14.231
14.3942
14.5585
14.7237
14.8898
15.0568
15.2245
15.3929
15.5619
15.7316
15.9018
16.0724
16.2435
16.415
16.5867
16.7588
16.931
17.1034
17.2759
17.4485
17.621
17.7936
17.9661
18.1385
18.3107
18.4827
18.6545
18.8261
18.9973
19.1682
19.3387
19.5088
19.6784
19.8476
20.0162
20.1844
20.3519
20.5189
20.6852
20.8509
21.016
21.1803
21.3439
21.5068
21.6689
21.8302
21.9907
22.1504
22.3093
22.4673
22.6244
22.7807
22.936
23.0904
23.2439
23.3964
23.5479
23.6985
23.8481
23.9967
24.1443
24.2909
24.4364
24.5809
24.7244
24.8668
25.0081
25.1484
25.2876
25.4257
25.5627
25.6987
25.8335
25.9673
26.0999
26.2314
26.3618
26.4911
26.6192
26.7462
26.8721
26.9969
27.1206
27.2431
27.3644
27.4847
27.6038
27.7217
27.8385
27.9542
28.0688
28.1822
28.2944
28.4056
28.5156
28.6245
28.7322
28.8388
28.9443
29.0486
29.1518
29.2539
29.3549
29.4547
29.5535
29.6511
29.7476
29.843
29.9373
30.0304
30.1225
30.2135
30.3034
30.3921
30.4798
30.5664
30.6519
30.7363
30.8197
30.9019
30.9831
31.0633
31.1423
31.2203
31.2972
31.3731
31.4479
31.5217
31.5944
31.6661
31.7368
31.8064
31.8749
31.9425
32.009
32.0745
32.139
32.2025
32.2649
32.3264
32.3868
32.4463
32.5047
32.5622
32.6186
32.6741
32.7286
32.7821
32.8347
32.8862
32.9368
32.9865
33.0351
33.0828
33.1296
33.1754
33.2202
33.2641
33.3071
33.3491
33.3901
33.4303
33.4695
33.5077
33.5451
33.5815
33.617
33.6515
33.6852
33.7179
33.7497
33.7806
33.8106
33.8397
33.8679
33.8952
33.9216
33.9471
33.9716
33.9953
34.0181
34.04
34.0611
34.0812
34.1004
34.1188
34.1363
34.1529
34.1686
34.1834
34.1974
34.2105
34.2227
34.234
34.2444
34.254
34.2627
34.2706
34.2775
34.2836
34.2888
34.2932
34.2967
34.2993
34.301
34.3019
12.647
12.6398
12.6253
12.6037
12.5752
12.5399
12.4982
12.4502
12.3964
12.337
12.2725
12.2031
12.1293
12.0514
11.9699
11.8851
11.7974
11.7072
11.6148
11.5205
11.4247
11.3277
11.2298
11.1314
11.0327
10.9339
10.8354
10.7373
10.64
10.5435
10.4483
10.3544
10.2621
10.1715
10.0828
9.99629
9.91201
9.83015
9.75087
9.67431
9.60061
9.5299
9.46229
9.39791
9.33686
9.27924
9.22514
9.17464
9.12784
9.08479
9.04557
9.01025
8.97887
8.95149
8.92815
8.90889
8.89375
8.88275
8.87593
8.87328
8.87484
8.88061
8.89059
8.90478
8.92318
8.94578
8.97257
9.00352
9.03861
9.07783
9.12113
9.16849
9.21987
9.27523
9.33452
9.39771
9.46474
9.53556
9.61011
9.68835
9.7702
9.85562
9.94454
10.0369
10.1326
10.2316
10.3339
10.4393
10.5478
10.6593
10.7737
10.891
11.0112
11.134
11.2595
11.3875
11.518
11.6509
11.7862
11.9237
12.0634
12.2052
12.3491
12.4949
12.6425
12.792
12.9432
13.096
13.2504
13.4063
13.5637
13.7224
13.8824
14.0436
14.206
14.3695
14.534
14.6994
14.8657
15.0329
15.2008
15.3694
15.5387
15.7086
15.8789
16.0498
16.221
16.3927
16.5646
16.7368
16.9092
17.0817
17.2543
17.427
17.5998
17.7725
17.9451
18.1176
18.2899
18.4621
18.634
18.8056
18.9769
19.1479
19.3184
19.4886
19.6583
19.8276
19.9963
20.1645
20.3321
20.4991
20.6655
20.8312
20.9963
21.1607
21.3243
21.4872
21.6494
21.8107
21.9712
22.131
22.2898
22.4478
22.605
22.7612
22.9165
23.0709
23.2244
23.3769
23.5284
23.679
23.8286
23.9771
24.1247
24.2712
24.4168
24.5612
24.7047
24.847
24.9884
25.1286
25.2678
25.4058
25.5428
25.6787
25.8135
25.9472
26.0798
26.2112
26.3416
26.4708
26.5989
26.7259
26.8517
26.9764
27.1
27.2225
27.3438
27.4639
27.583
27.7009
27.8176
27.9333
28.0477
28.1611
28.2733
28.3844
28.4943
28.6031
28.7108
28.8173
28.9227
29.027
29.1302
29.2322
29.3331
29.4329
29.5315
29.6291
29.7255
29.8209
29.9151
30.0082
30.1002
30.1911
30.2809
30.3696
30.4572
30.5437
30.6292
30.7135
30.7968
30.879
30.9602
31.0402
31.1192
31.1971
31.274
31.3498
31.4246
31.4983
31.571
31.6426
31.7132
31.7827
31.8512
31.9187
31.9852
32.0506
32.1151
32.1785
32.2409
32.3023
32.3627
32.4221
32.4805
32.5379
32.5943
32.6497
32.7042
32.7576
32.8101
32.8616
32.9122
32.9618
33.0104
33.0581
33.1048
33.1505
33.1953
33.2392
33.2821
33.324
33.3651
33.4052
33.4443
33.4825
33.5198
33.5562
33.5917
33.6262
33.6598
33.6925
33.7243
33.7552
33.7852
33.8142
33.8424
33.8696
33.896
33.9215
33.946
33.9697
33.9925
34.0144
34.0354
34.0555
34.0747
34.093
34.1105
34.1271
34.1428
34.1576
34.1715
34.1846
34.1968
34.2081
34.2185
34.2281
34.2368
34.2446
34.2516
34.2577
34.2629
34.2672
34.2707
34.2733
34.2751
34.2759
12.5504
12.5433
12.5291
12.508
12.48
12.4454
12.4044
12.3574
12.3045
12.2461
12.1826
12.1143
12.0416
11.9648
11.8844
11.8007
11.7141
11.6249
11.5335
11.4402
11.3453
11.2493
11.1523
11.0548
10.9569
10.8589
10.7612
10.6639
10.5673
10.4717
10.3771
10.284
10.1923
10.1025
10.0145
9.9286
9.84497
9.76376
9.68512
9.6092
9.53612
9.46603
9.39903
9.33525
9.27478
9.21774
9.16422
9.11429
9.06804
9.02555
8.98688
8.9521
8.92126
8.89441
8.87159
8.85286
8.83823
8.82775
8.82143
8.81929
8.82135
8.82761
8.83809
8.85277
8.87166
8.89475
8.92201
8.95344
8.98901
9.0287
9.07247
9.1203
9.17214
9.22796
9.28771
9.35135
9.41883
9.49009
9.56509
9.64377
9.72606
9.81191
9.90125
9.99402
10.0902
10.1896
10.2922
10.3981
10.5069
10.6189
10.7337
10.8514
10.9719
11.0951
11.2209
11.3493
11.4802
11.6135
11.7491
11.887
12.027
12.1691
12.3133
12.4594
12.6073
12.7571
12.9086
13.0617
13.2164
13.3726
13.5302
13.6892
13.8494
14.0109
14.1735
14.3372
14.5019
14.6676
14.8341
15.0015
15.1696
15.3384
15.5079
15.6779
15.8484
16.0195
16.1909
16.3626
16.5347
16.707
16.8795
17.0522
17.225
17.3978
17.5706
17.7434
17.9161
18.0887
18.2611
18.4333
18.6053
18.777
18.9484
19.1194
19.29
19.4602
19.63
19.7993
19.968
20.1362
20.3039
20.4709
20.6373
20.803
20.9681
21.1325
21.2961
21.459
21.6211
21.7824
21.943
22.1026
22.2615
22.4195
22.5766
22.7328
22.888
23.0424
23.1958
23.3483
23.4997
23.6503
23.7998
23.9483
24.0958
24.2423
24.3877
24.5321
24.6755
24.8178
24.959
25.0992
25.2383
25.3763
25.5132
25.649
25.7837
25.9173
26.0498
26.1812
26.3114
26.4405
26.5686
26.6954
26.8212
26.9458
27.0693
27.1916
27.3129
27.4329
27.5519
27.6697
27.7863
27.9019
28.0162
28.1295
28.2416
28.3526
28.4624
28.5711
28.6787
28.7851
28.8904
28.9946
29.0977
29.1996
29.3004
29.4001
29.4987
29.5961
29.6924
29.7877
29.8818
29.9748
30.0667
30.1575
30.2472
30.3358
30.4234
30.5098
30.5951
30.6794
30.7626
30.8447
30.9257
31.0057
31.0846
31.1625
31.2392
31.315
31.3896
31.4633
31.5358
31.6074
31.6779
31.7473
31.8158
31.8832
31.9496
32.0149
32.0793
32.1426
32.205
32.2663
32.3266
32.3859
32.4442
32.5016
32.5579
32.6133
32.6677
32.7211
32.7735
32.8249
32.8754
32.9249
32.9735
33.0211
33.0677
33.1134
33.1582
33.202
33.2448
33.2867
33.3277
33.3677
33.4069
33.445
33.4823
33.5186
33.554
33.5885
33.6221
33.6547
33.6865
33.7173
33.7472
33.7763
33.8044
33.8316
33.8579
33.8834
33.9079
33.9315
33.9543
33.9761
33.9971
34.0172
34.0364
34.0547
34.0721
34.0887
34.1044
34.1192
34.1331
34.1461
34.1583
34.1696
34.1801
34.1896
34.1983
34.2061
34.213
34.2191
34.2243
34.2287
34.2321
34.2347
34.2365
34.2373
12.4417
12.4349
12.4211
12.4006
12.3735
12.3399
12.3001
12.2543
12.2028
12.1459
12.0839
12.0172
11.9461
11.8709
11.7921
11.7099
11.6247
11.5369
11.4469
11.3549
11.2613
11.1665
11.0707
10.9742
10.8773
10.7804
10.6836
10.5872
10.4915
10.3967
10.303
10.2106
10.1198
10.0306
9.94338
9.85822
9.7753
9.69479
9.61683
9.54158
9.46917
9.39973
9.33338
9.27024
9.21041
9.15399
9.10108
9.05176
9.00612
8.96422
8.92615
8.89195
8.86169
8.83542
8.81319
8.79502
8.78097
8.77105
8.76529
8.76372
8.76634
8.77316
8.78419
8.79943
8.81887
8.84251
8.87033
8.9023
8.93842
8.97865
9.02297
9.07134
9.12372
9.18008
9.24037
9.30454
9.37255
9.44435
9.51988
9.59908
9.68189
9.76826
9.85812
9.95141
10.0481
10.148
10.2511
10.3575
10.4668
10.5792
10.6946
10.8128
10.9337
11.0574
11.1837
11.3126
11.4439
11.5776
11.7137
11.852
11.9924
12.135
12.2796
12.4261
12.5745
12.7246
12.8765
13.03
13.1851
13.3416
13.4996
13.659
13.8196
13.9814
14.1443
14.3084
14.4734
14.6394
14.8062
14.9739
15.1423
15.3114
15.4811
15.6514
15.8222
15.9935
16.1652
16.3372
16.5095
16.682
16.8548
17.0276
17.2006
17.3736
17.5467
17.7196
17.8925
18.0653
18.2379
18.4102
18.5824
18.7542
18.9257
19.0969
19.2676
19.438
19.6078
19.7772
19.9461
20.1144
20.2821
20.4492
20.6157
20.7815
20.9467
21.1111
21.2748
21.4378
21.5999
21.7613
21.9219
22.0816
22.2405
22.3985
22.5556
22.7118
22.8671
23.0215
23.1749
23.3274
23.4789
23.6294
23.7789
23.9274
24.0749
24.2214
24.3668
24.5112
24.6546
24.7969
24.9381
25.0782
25.2173
25.3552
25.4921
25.6279
25.7626
25.8961
26.0286
26.1599
26.2901
26.4192
26.5472
26.674
26.7997
26.9243
27.0477
27.17
27.2912
27.4112
27.5301
27.6478
27.7644
27.8799
27.9942
28.1074
28.2194
28.3304
28.4401
28.5488
28.6563
28.7626
28.8679
28.972
29.075
29.1769
29.2776
29.3772
29.4757
29.5731
29.6694
29.7645
29.8586
29.9515
30.0434
30.1341
30.2237
30.3123
30.3997
30.4861
30.5714
30.6556
30.7387
30.8207
30.9017
30.9816
31.0605
31.1382
31.2149
31.2906
31.3652
31.4388
31.5113
31.5828
31.6532
31.7226
31.791
31.8583
31.9247
31.99
32.0543
32.1175
32.1798
32.2411
32.3013
32.3606
32.4189
32.4761
32.5324
32.5877
32.6421
32.6954
32.7478
32.7992
32.8496
32.8991
32.9476
32.9952
33.0418
33.0874
33.1321
33.1758
33.2187
33.2605
33.3015
33.3415
33.3805
33.4187
33.4559
33.4922
33.5275
33.562
33.5955
33.6281
33.6599
33.6907
33.7206
33.7495
33.7776
33.8048
33.8311
33.8565
33.881
33.9046
33.9274
33.9492
33.9702
33.9902
34.0094
34.0277
34.0451
34.0616
34.0773
34.0921
34.106
34.119
34.1312
34.1425
34.1529
34.1624
34.1711
34.1789
34.1859
34.1919
34.1971
34.2015
34.2049
34.2075
34.2093
34.2101
12.327
12.3203
12.3069
12.2869
12.2604
12.2276
12.1888
12.144
12.0937
12.038
11.9773
11.9119
11.8421
11.7683
11.6908
11.61
11.5262
11.4397
11.3509
11.2602
11.1679
11.0742
10.9795
10.8841
10.7883
10.6924
10.5966
10.5011
10.4064
10.3124
10.2196
10.1281
10.038
9.94972
9.86328
9.77891
9.69677
9.61702
9.53983
9.46532
9.39365
9.32493
9.2593
9.19686
9.13773
9.082
9.02977
8.98113
8.93616
8.89493
8.85751
8.82396
8.79435
8.76872
8.74712
8.72959
8.71616
8.70687
8.70173
8.70078
8.70401
8.71145
8.72309
8.73894
8.75898
8.78322
8.81164
8.84422
8.88093
8.92176
8.96666
9.01562
9.06859
9.12553
9.1864
9.25116
9.31974
9.39211
9.46821
9.54797
9.63135
9.71828
9.80869
9.90253
9.99972
10.1002
10.2039
10.3107
10.4207
10.5336
10.6494
10.7681
10.8896
11.0138
11.1406
11.2699
11.4017
11.5359
11.6725
11.8112
11.9521
12.0952
12.2402
12.3871
12.5359
12.6865
12.8388
12.9927
13.1482
13.3051
13.4635
13.6232
13.7841
13.9463
14.1096
14.274
14.4394
14.6057
14.7728
14.9408
15.1095
15.2789
15.4489
15.6195
15.7905
15.9621
16.134
16.3062
16.4788
16.6515
16.8245
16.9976
17.1707
17.344
17.5172
17.6903
17.8634
18.0363
18.209
18.3816
18.5538
18.7258
18.8975
19.0687
19.2396
19.4101
19.58
19.7495
19.9185
20.0868
20.2547
20.4218
20.5884
20.7543
20.9195
21.084
21.2477
21.4107
21.5729
21.7343
21.8949
22.0547
22.2136
22.3716
22.5287