/*--------------------------------*- C++ -*----------------------------------*\
| =========                 |                                                 |
| \\      /  F ield         | OpenFOAM: The Open Source CFD Toolbox           |
|  \\    /   O peration     | Version:  2212                                  |
|   \\  /    A nd           | Website:  www.openfoam.com                      |
|    \\/     M anipulation  |                                                 |
\*---------------------------------------------------------------------------*/
FoamFile
{
    version     2.0;
    format      ascii;
    arch        "LSB;label=32;scalar=64";
    class       surfaceScalarField;
    location    "310";
    object      phi;
}
// * * * * * * * * * * * * * * * * * * * * * * * * * * * * * * * * * * * * * //

dimensions      [1 0 -1 0 0 0 0];

oriented        oriented;

internalField   nonuniform List<scalar> 
408640
(
-2203.34
2202.66
-4400.19
2196.61
-6581.62
2181.18
-8739.15
2157.27
-10865.1
2125.71
-12952.8
2087.33
-14996.3
2043.18
-16990.9
1994.36
-18933.4
1942.09
-20821.2
1887.48
-22653.1
1831.56
-24428.7
1775.22
-26148.3
1719.23
-27812.8
1664.22
-29423.9
1610.7
-30983.2
1559.05
-32493
1509.52
-33955.6
1462.25
-35373.1
1417.29
-36747.9
1374.59
-38082.2
1334.05
-39378
1295.54
-40637.1
1258.89
-41861.2
1223.92
-43051.8
1190.45
-44210.3
1158.31
-45337.7
1127.32
-46435.2
1097.33
-47503.5
1068.21
-48543.5
1039.83
-49555.7
1012.09
-50540.7
984.89
-51499
958.166
-52430.9
931.856
-53337
905.912
-54217.3
880.298
-55072.4
854.986
-55902.5
829.956
-56707.7
805.192
-57488.5
780.685
-58245
756.427
-58977.4
732.415
-59686.1
708.644
-60371.3
685.113
-61033.2
661.822
-61672
638.77
-62287.9
615.957
-62881.3
593.385
-63452.4
571.053
-64001.4
548.963
-64528.5
527.116
-65034
505.513
-65518.1
484.157
-65981.2
463.049
-66423.3
442.19
-66844.9
421.582
-67246.1
401.227
-67627.2
381.127
-67988.4
361.283
-68330
341.698
-68652.3
322.373
-68955.6
303.31
-69240
284.511
-69505.9
265.978
-69753.6
247.712
-69983.2
229.715
-70195.1
211.988
-70389.5
194.533
-70566.7
177.352
-70727.1
160.444
-70870.8
143.813
-70998.1
127.458
-71109.3
111.381
-71204.8
95.5819
-71284.7
80.0621
-71349.4
64.8219
-71399.1
49.8616
-71434.1
35.1817
-71454.7
20.7821
-71461.2
6.66292
-71453.9
-7.176
-71433
-20.735
-71398.8
-34.0144
-71351.5
-47.0149
-71291.6
-59.7371
-71219.2
-72.1819
-71134.7
-84.3503
-71038.2
-96.2434
-70930.1
-107.862
-70810.7
-119.209
-70680.2
-130.284
-70538.9
-141.09
-70387
-151.628
-70224.9
-161.9
-70052.8
-171.908
-69870.9
-181.654
-69679.5
-191.141
-69478.8
-200.371
-69269.2
-209.346
-69050.9
-218.068
-68824.1
-226.541
-68589.1
-234.766
-68346.1
-242.748
-68095.3
-250.488
-67837.1
-257.989
-67571.5
-265.255
-67299
-272.289
-67019.6
-279.093
-66733.7
-285.671
-66441.3
-292.026
-66142.9
-298.162
-65838.5
-304.081
-65528.5
-309.787
-65212.9
-315.283
-64892
-320.574
-64566.1
-325.662
-64235.2
-330.55
-63899.7
-335.243
-63559.7
-339.744
-63215.3
-344.056
-62866.8
-348.182
-62514.4
-352.128
-62158.2
-355.895
-61798.4
-359.487
-61435.2
-362.909
-61068.8
-366.163
-60699.2
-369.254
-60326.7
-372.184
-59951.5
-374.957
-59573.6
-377.577
-59193.3
-380.046
-58810.6
-382.37
-58425.8
-384.55
-58038.9
-386.591
-57650.1
-388.495
-57259.6
-390.267
-56867.4
-391.908
-56473.7
-393.424
-56078.6
-394.816
-55682.2
-396.089
-55284.7
-397.244
-54886.1
-398.287
-54486.6
-399.218
-54086.3
-400.043
-53685.3
-400.763
-53283.6
-401.381
-52881.5
-401.901
-52478.9
-402.325
-52076
-402.657
-51672.8
-402.898
-51269.5
-403.053
-50866.2
-403.123
-50462.8
-403.111
-50059.6
-403.02
-49656.5
-402.852
-49253.7
-402.61
-48851.1
-402.297
-48449
-401.915
-48047.3
-401.465
-47646.2
-400.952
-47245.6
-400.376
-46845.6
-399.74
-46446.4
-399.047
-46047.9
-398.298
-45650.2
-397.496
-45253.4
-396.642
-44857.5
-395.739
-44462.5
-394.789
-44068.6
-393.794
-43675.6
-392.755
-43283.8
-391.674
-42893.1
-390.554
-42503.6
-389.396
-42115.2
-388.201
-41728.1
-386.972
-41342.3
-385.709
-40957.8
-384.416
-40574.5
-383.092
-40192.7
-381.741
-39812.2
-380.362
-39433.2
-378.959
-39055.6
-377.531
-38679.4
-376.081
-38304.7
-374.609
-37931.5
-373.118
-37559.8
-371.608
-37189.7
-370.08
-36821.1
-368.537
-36454.1
-366.978
-36088.6
-365.406
-35724.8
-363.82
-35362.5
-362.223
-35001.9
-360.616
-34642.9
-358.998
-34285.5
-357.372
-33929.8
-355.738
-33575.7
-354.098
-33223.3
-352.452
-32872.5
-350.8
-32523.4
-349.144
-32175.9
-347.485
-31830.2
-345.824
-31486
-344.16
-31143.6
-342.496
-30802.8
-340.831
-30463.7
-339.167
-30126.3
-337.504
-29790.6
-335.842
-29456.5
-334.183
-29124.1
-332.527
-28793.3
-330.874
-28464.2
-329.225
-28136.7
-327.581
-27810.9
-325.943
-27486.7
-324.31
-27164.2
-322.683
-26843.3
-321.063
-26524
-319.45
-26206.3
-317.845
-25890.2
-316.248
-25575.8
-314.659
-25262.9
-313.079
-24951.5
-311.509
-24641.8
-309.948
-24333.6
-308.397
-24027
-306.857
-23721.8
-305.327
-23418.3
-303.808
-23116.2
-302.301
-22815.6
-300.805
-22516.6
-299.321
-22219
-297.849
-21922.8
-296.39
-21628.1
-294.943
-21334.9
-293.51
-21043.1
-292.089
-20752.7
-290.682
-20463.7
-289.288
-20176.1
-287.909
-19889.8
-286.543
-19605
-285.192
-19321.4
-283.855
-19039.2
-282.532
-18758.3
-281.224
-18478.7
-279.931
-18200.4
-278.653
-17923.3
-277.391
-17647.5
-276.143
-17373
-274.911
-17099.6
-273.695
-16827.5
-272.494
-16556.6
-271.309
-16286.8
-270.14
-16018.2
-268.987
-15750.7
-267.849
-15484.4
-266.729
-15219.2
-265.624
-14955
-264.536
-14692
-263.464
-14430
-262.409
-14169
-261.37
-13909.1
-260.348
-13650.2
-259.342
-13392.3
-258.354
-13135.3
-257.382
-12879.3
-256.427
-12624.3
-255.489
-12370.1
-254.568
-12116.9
-253.664
-11864.6
-252.777
-11613.2
-251.907
-11362.6
-251.054
-11112.8
-250.218
-10863.9
-249.4
-10615.8
-248.598
-10368.4
-247.814
-10121.9
-247.047
-9876.04
-246.298
-9630.96
-245.565
-9386.6
-244.85
-9142.94
-244.153
-8899.96
-243.472
-8657.65
-242.809
-8415.99
-242.164
-8174.95
-241.536
-7934.54
-240.925
-7694.71
-240.331
-7455.47
-239.755
-7216.79
-239.197
-6978.65
-238.656
-6741.04
-238.132
-6503.93
-237.626
-6267.32
-237.137
-6031.18
-236.666
-5795.49
-236.212
-5560.25
-235.775
-5325.42
-235.356
-5091
-234.955
-4856.97
-234.571
-4623.3
-234.204
-4389.98
-233.855
-4157
-233.523
-3924.33
-233.209
-3691.96
-232.912
-3459.87
-232.633
-3228.04
-232.371
-2996.46
-232.127
-2765.11
-231.901
-2533.96
-231.692
-2303.01
-231.501
-2072.23
-231.327
-1841.61
-231.172
-1611.13
-231.036
-1380.76
-230.917
-1150.49
-230.818
-920.308
-230.737
-690.184
-230.676
-460.104
-230.633
-230.048
-230.609
-230.6
-2186.85
4389.27
-4367.69
4377.21
-6534.12
4347.36
-8678.19
4301.07
-10792.7
4239.97
-12871.2
4165.53
-14908.1
4079.75
-16898.8
3984.7
-18839.7
3882.64
-20728.3
3775.69
-22562.9
3665.82
-24342.8
3554.75
-26067.9
3443.99
-27738.9
3334.81
-29356.7
3228.23
-30923
3125.05
-32439.6
3025.84
-33908.6
2930.91
-35332
2840.42
-36712
2754.34
-38050.7
2672.53
-39350.1
2594.74
-40612.1
2520.69
-41838.4
2450.04
-43030.6
2382.46
-44190
2317.59
-45318
2255.12
-46415.5
2194.73
-47483.6
2136.13
-48523
2079.1
-49534.4
2023.39
-50518.4
1968.83
-51475.6
1915.26
-52406.4
1862.56
-53311.2
1810.61
-54190.4
1759.35
-55044.2
1708.71
-55873
1658.65
-56677
1609.12
-57456.5
1560.12
-58211.7
1511.62
-58943
1463.62
-59650.5
1416.1
-60334.5
1369.06
-60995.2
1322.5
-61632.9
1276.42
-62247.8
1230.81
-62840.1
1185.69
-63410.1
1141.05
-63958
1096.89
-64484.1
1053.22
-64988.7
1010.04
-65471.8
967.349
-65933.9
925.154
-66375.2
883.457
-66795.8
842.262
-67196.1
801.573
-67576.4
761.394
-67936.7
721.727
-68277.6
682.577
-68599.1
643.947
-68901.5
605.842
-69185.2
568.264
-69450.4
531.217
-69697.3
494.704
-69926.2
458.729
-70137.4
423.295
-70331.2
388.404
-70507.8
354.06
-70667.5
320.264
-70810.6
287.02
-70937.3
254.328
-71048
222.192
-71142.9
190.613
-71222.3
159.591
-71286.4
129.129
-71335.7
99.2264
-71370.2
69.8843
-71390.4
41.1029
-71396.4
12.8821
-71388.6
-14.7782
-71367.3
-41.8788
-71332.7
-68.4204
-71285.1
-94.4042
-71224.8
-119.832
-71152.1
-144.704
-71067.2
-169.024
-70970.5
-192.794
-70862.1
-216.016
-70742.4
-238.692
-70611.6
-260.826
-70470.1
-282.422
-70318
-303.482
-70155.7
-324.01
-69983.3
-344.011
-69801.2
-363.488
-69609.7
-382.447
-69408.9
-400.891
-69199.2
-418.825
-68980.7
-436.256
-68753.8
-453.186
-68518.7
-469.623
-68275.6
-485.572
-68024.8
-501.038
-67766.5
-516.027
-67500.9
-530.545
-67228.4
-544.599
-66949
-558.194
-66663
-571.337
-66370.7
-584.035
-66072.3
-596.293
-65768
-608.119
-65458
-619.519
-65142.5
-630.501
-64821.7
-641.07
-64495.8
-651.234
-64165.1
-661
-63829.7
-670.374
-63489.7
-679.365
-63145.5
-687.978
-62797.2
-696.221
-62444.9
-704.101
-62088.9
-711.626
-61729.3
-718.801
-61366.3
-725.635
-61000
-732.135
-60630.7
-738.306
-60258.4
-744.158
-59883.4
-749.695
-59505.7
-754.926
-59125.6
-759.858
-58743.2
-764.496
-58358.6
-768.849
-57972
-772.923
-57583.5
-776.725
-57193.2
-780.26
-56801.3
-783.537
-56407.9
-786.561
-56013.1
-789.339
-55617
-791.878
-55219.8
-794.184
-54821.5
-796.262
-54422.4
-798.12
-54022.4
-799.763
-53621.7
-801.197
-53220.4
-802.429
-52818.5
-803.464
-52416.3
-804.308
-52013.7
-804.966
-51610.9
-805.445
-51208
-805.75
-50805
-805.886
-50402
-805.858
-49999.1
-805.672
-49596.4
-805.333
-49193.9
-804.846
-48791.8
-804.216
-48390
-803.448
-47988.7
-802.547
-47588
-801.516
-47187.8
-800.362
-46788.2
-799.088
-46389.4
-797.699
-45991.3
-796.199
-45594
-794.592
-45197.6
-792.883
-44802.1
-791.076
-44407.5
-789.174
-44014
-787.181
-43621.5
-785.102
-43230
-782.939
-42839.7
-780.697
-42450.6
-778.379
-42062.7
-775.989
-41676
-773.529
-41290.6
-771.004
-40906.5
-768.416
-40523.7
-765.769
-40142.2
-763.065
-39762.2
-760.307
-39383.5
-757.499
-39006.3
-754.643
-38630.6
-751.742
-38256.3
-748.799
-37883.6
-745.816
-37512.3
-742.796
-37142.6
-739.742
-36774.4
-736.654
-36407.8
-733.537
-36042.8
-730.393
-35679.4
-727.222
-35317.5
-724.028
-34957.3
-720.813
-34598.7
-717.579
-34241.8
-714.328
-33886.4
-711.061
-33532.8
-707.78
-33180.8
-704.488
-32830.4
-701.186
-32481.7
-697.875
-32134.7
-694.558
-31789.3
-691.236
-31445.6
-687.91
-31103.6
-684.582
-30763.2
-681.253
-30424.5
-677.925
-30087.5
-674.6
-29752.2
-671.278
-29418.5
-667.96
-29086.5
-664.649
-28756.1
-661.344
-28427.4
-658.048
-28100.3
-654.761
-27774.9
-651.485
-27451.1
-648.22
-27129
-644.968
-26808.5
-641.729
-26489.6
-638.505
-26172.3
-635.296
-25856.6
-632.103
-25542.5
-628.927
-25230
-625.768
-24919.1
-622.629
-24609.7
-619.508
-24301.9
-616.408
-23995.7
-613.328
-23690.9
-610.27
-23387.7
-607.234
-23086
-604.22
-22785.9
-601.23
-22487.2
-598.263
-22189.9
-595.321
-21894.2
-592.404
-21599.9
-589.512
-21307
-586.646
-21015.6
-583.806
-20725.5
-580.993
-20436.9
-578.208
-20149.7
-575.45
-19863.8
-572.72
-19579.3
-570.018
-19296.1
-567.345
-19014.2
-564.702
-18733.7
-562.087
-18454.5
-559.503
-18176.5
-556.948
-17899.8
-554.424
-17624.4
-551.93
-17350.2
-549.467
-17077.2
-547.036
-16805.4
-544.635
-16534.8
-542.267
-16265.4
-539.93
-15997.1
-537.624
-15730
-535.352
-15464
-533.111
-15199.1
-530.903
-14935.4
-528.728
-14672.6
-526.585
-14411
-524.476
-14150.4
-522.399
-13890.8
-520.356
-13632.2
-518.347
-13374.6
-516.37
-13118
-514.428
-12862.3
-512.519
-12607.6
-510.644
-12353.8
-508.803
-12100.9
-506.995
-11849
-505.222
-11597.8
-503.483
-11347.6
-501.779
-11098.1
-500.108
-10849.5
-498.472
-10601.7
-496.87
-10354.7
-495.303
-10108.5
-493.77
-9862.99
-492.271
-9618.23
-490.808
-9374.2
-489.378
-9130.86
-487.984
-8888.2
-486.624
-8646.21
-485.299
-8404.86
-484.009
-8164.15
-482.753
-7924.05
-481.532
-7684.54
-480.346
-7445.61
-479.195
-7207.24
-478.078
-6969.42
-476.996
-6732.12
-475.95
-6495.33
-474.938
-6259.03
-473.961
-6023.2
-473.019
-5787.83
-472.111
-5552.89
-471.239
-5318.38
-470.401
-5084.26
-469.599
-4850.54
-468.831
-4617.18
-468.098
-4384.17
-467.4
-4151.5
-466.737
-3919.14
-466.109
-3687.07
-465.516
-3455.29
-464.958
-3223.77
-464.435
-2992.5
-463.947
-2761.45
-463.494
-2530.61
-463.077
-2299.96
-462.695
-2069.49
-462.348
-1839.17
-462.038
-1608.99
-461.765
-1378.93
-461.528
-1148.97
-461.329
-919.093
-461.168
-689.275
-461.045
-459.5
-460.96
-229.748
-460.912
-460.9
-2167.26
6556.27
-4328.72
6538.41
-6476.87
6495.25
-8604.53
6428.45
-10705
6340.16
-12772.3
6232.47
-14801
6108.11
-16786.6
5969.98
-18725.6
5821.23
-20615.1
5664.83
-22453.2
5503.59
-24238.8
5339.98
-25971.4
5176.19
-27651.1
5014.1
-29278.5
4855.28
-30854.7
4700.95
-32381.2
4552.03
-33859.7
4409.1
-35292
4272.47
-36680.1
4142.21
-38026
4018.19
-39331.6
3900.12
-40598.8
3787.65
-41829.3
3680.33
-43024.7
3577.69
-44186.5
3479.24
-45316
3384.52
-46414.5
3293.06
-47483
3204.44
-48522.3
3118.28
-49533.2
3034.24
-50516.6
2952.03
-51472.8
2871.39
-52402.5
2792.13
-53306
2714.07
-54183.9
2637.09
-55036.3
2561.07
-55863.7
2485.94
-56666.3
2411.65
-57444.4
2338.15
-58198.2
2265.42
-58928.1
2193.44
-59634.3
2122.18
-60316.9
2051.66
-60976.3
1981.85
-61612.7
1912.76
-62226.3
1844.4
-62817.4
1776.75
-63386.1
1709.82
-63932.9
1643.62
-64457.8
1578.15
-64961.2
1513.41
-65443.2
1449.4
-65904.2
1386.14
-66344.3
1323.63
-66763.9
1261.87
-67163.2
1200.87
-67542.3
1140.63
-67901.7
1081.16
-68241.6
1022.46
-68562.1
964.546
-68863.6
907.416
-69146.3
851.078
-69410.6
795.535
-69656.6
740.794
-69884.6
686.86
-70095
633.736
-70287.9
581.427
-70463.7
529.938
-70622.6
479.272
-70764.8
429.432
-70890.8
380.422
-71000.7
332.245
-71094.9
284.902
-71173.5
238.396
-71237
192.729
-71285.5
147.901
-71319.4
103.914
-71338.9
60.7684
-71344.3
18.4633
-71335.9
-23.0013
-71314
-63.6263
-71278.8
-103.413
-71230.6
-142.363
-71169.8
-180.479
-71096.5
-217.762
-71011.1
-254.217
-70913.9
-289.846
-70805
-324.653
-70684.9
-358.643
-70553.6
-391.819
-70411.7
-424.188
-70259.2
-455.753
-70096.4
-486.521
-69923.7
-516.498
-69741.2
-545.69
-69549.3
-574.104
-69348.2
-601.746
-69138.2
-628.625
-68919.4
-654.746
-68692.2
-680.119
-68456.8
-704.752
-68213.5
-728.652
-67962.4
-751.828
-67703.9
-774.29
-67438.1
-796.045
-67165.4
-817.104
-66885.8
-837.475
-66599.7
-857.168
-66307.2
-876.193
-66008.7
-894.56
-65704.3
-912.278
-65394.1
-929.359
-65078.5
-945.81
-64757.7
-961.645
-64431.7
-976.871
-64100.9
-991.501
-63765.5
-1005.54
-63425.5
-1019.01
-63081.3
-1031.91
-62733
-1044.26
-62380.7
-1056.06
-62024.7
-1067.33
-61665.1
-1078.08
-61302.2
-1088.31
-60936
-1098.05
-60566.7
-1107.29
-60194.5
-1116.05
-59819.6
-1124.34
-59442
-1132.17
-59062
-1139.55
-58679.7
-1146.5
-58295.3
-1153.01
-57908.8
-1159.11
-57520.5
-1164.8
-57130.3
-1170.09
-56738.6
-1174.99
-56345.4
-1179.52
-55950.7
-1183.67
-55554.9
-1187.47
-55157.9
-1190.92
-54759.8
-1194.02
-54360.9
-1196.8
-53961.1
-1199.25
-53560.7
-1201.39
-53159.6
-1203.23
-52758
-1204.77
-52356.1
-1206.03
-51953.8
-1207.01
-51551.2
-1207.72
-51148.6
-1208.17
-50745.8
-1208.36
-50343.1
-1208.31
-49940.6
-1208.03
-49538.1
-1207.51
-49136
-1206.78
-48734.2
-1205.82
-48332.7
-1204.67
-47931.7
-1203.31
-47531.3
-1201.76
-47131.4
-1200.02
-46732.2
-1198.1
-46333.7
-1196.01
-45936
-1193.76
-45539
-1191.34
-45142.9
-1188.78
-44747.8
-1186.06
-44353.6
-1183.2
-43960.4
-1180.21
-43568.2
-1177.09
-43177.2
-1173.84
-42787.3
-1170.47
-42398.5
-1166.99
-42011
-1163.4
-41624.6
-1159.71
-41239.6
-1155.92
-40855.8
-1152.04
-40473.4
-1148.06
-40092.4
-1144.01
-39712.7
-1139.87
-39334.5
-1135.65
-38957.7
-1131.37
-38582.3
-1127.02
-38208.4
-1122.6
-37836
-1118.12
-37465.2
-1113.59
-37095.9
-1109.01
-36728.1
-1104.38
-36361.9
-1099.7
-35997.2
-1094.98
-35634.2
-1090.23
-35272.8
-1085.44
-34912.9
-1080.62
-34554.7
-1075.76
-34198.2
-1070.89
-33843.3
-1065.99
-33490
-1061.07
-33138.4
-1056.13
-32788.4
-1051.17
-32440.1
-1046.21
-32093.5
-1041.23
-31748.5
-1036.25
-31405.2
-1031.26
-31063.6
-1026.27
-30723.6
-1021.28
-30385.3
-1016.29
-30048.7
-1011.3
-29713.7
-1006.32
-29380.4
-1001.34
-29048.8
-996.377
-28718.8
-991.422
-28390.5
-986.479
-28063.9
-981.55
-27738.8
-976.637
-27415.5
-971.741
-27093.7
-966.864
-26773.6
-962.007
-26455.1
-957.172
-26138.2
-952.36
-25822.9
-947.572
-25509.2
-942.809
-25197
-938.073
-24886.5
-933.365
-24577.5
-928.686
-24270.1
-924.037
-23964.2
-919.42
-23659.9
-914.834
-23357
-910.281
-23055.7
-905.763
-22755.9
-901.279
-22457.6
-896.831
-22160.7
-892.419
-21865.4
-888.045
-21571.4
-883.709
-21278.9
-879.412
-20987.9
-875.154
-20698.2
-870.937
-20409.9
-866.76
-20123.1
-862.625
-19837.5
-858.532
-19553.4
-854.481
-19270.6
-850.474
-18989.1
-846.51
-18708.9
-842.59
-18430
-838.715
-18152.4
-834.885
-17876.1
-831.1
-17601
-827.362
-17327.2
-823.669
-17054.5
-820.023
-16783.1
-816.425
-16512.9
-812.873
-16243.8
-809.369
-15975.9
-805.913
-15709.1
-802.506
-15443.5
-799.147
-15178.9
-795.836
-14915.5
-792.575
-14653.1
-789.363
-14391.8
-786.2
-14131.5
-783.088
-13872.3
-780.024
-13614
-777.011
-13356.8
-774.049
-13100.5
-771.136
-12845.2
-768.275
-12590.8
-765.463
-12337.4
-762.703
-12084.8
-759.994
-11833.1
-757.335
-11582.4
-754.728
-11332.4
-752.173
-11083.3
-749.668
-10835.1
-747.215
-10587.6
-744.814
-10340.9
-742.464
-10095
-740.166
-9849.81
-737.92
-9605.38
-735.725
-9361.66
-733.583
-9118.65
-731.492
-8876.31
-729.453
-8634.64
-727.467
-8393.62
-725.532
-8153.22
-723.65
-7913.44
-721.819
-7674.25
-720.041
-7435.65
-718.315
-7197.6
-716.642
-6960.09
-715.02
-6723.11
-713.451
-6486.63
-711.934
-6250.64
-710.469
-6015.13
-709.057
-5780.07
-707.696
-5545.45
-706.389
-5311.25
-705.133
-5077.45
-703.93
-4844.04
-702.779
-4610.99
-701.68
-4378.3
-700.634
-4145.93
-699.64
-3913.88
-698.699
-3682.13
-697.81
-3450.66
-696.973
-3219.45
-696.189
-2988.48
-695.457
-2757.75
-694.778
-2527.22
-694.152
-2296.88
-693.579
-2066.72
-693.06
-1836.71
-692.595
-1606.84
-692.185
-1377.09
-691.83
-1147.43
-691.532
-917.863
-691.291
-688.352
-691.107
-458.884
-690.98
-229.439
-690.909
-690.891
-2141.59
8697.59
-4277.81
8674.35
-6402.18
8619.33
-8508.42
8534.38
-10590.6
8421.98
-12643.1
8284.66
-14661
8125.7
-16640.1
7948.62
-18576.5
7757.27
-20467.3
7555.28
-22310.3
7346.15
-24103.7
7132.99
-25846.5
6918.61
-27538.2
6705.45
-29178.9
6495.61
-30769.1
6290.79
-32309.7
6092.3
-33802
5901.05
-35247.4
5717.6
-36647.7
5542.17
-38004.5
5374.75
-39319.7
5215.09
-40595.1
5062.83
-41832.4
4917.47
-43033.4
4778.47
-44199.6
4645.22
-45332.4
4517.15
-46433.1
4393.64
-47503
4274.16
-48543
4158.17
-49554.1
4045.22
-50537.1
3934.88
-51492.6
3826.82
-52421.3
3720.72
-53323.7
3616.34
-54200.2
3513.48
-55051.1
3411.97
-55877
3311.72
-56678
3212.61
-57454.6
3114.6
-58206.8
3017.63
-58935.1
2921.66
-59639.7
2826.69
-60320.7
2732.69
-60978.6
2639.66
-61613.4
2547.58
-62225.5
2456.47
-62815.1
2366.32
-63382.5
2277.13
-63927.7
2188.9
-64451.2
2101.65
-64953.2
2015.37
-65433.9
1930.08
-65893.5
1845.77
-66332.3
1762.46
-66750.5
1680.15
-67148.5
1598.85
-67526.4
1518.57
-67884.5
1439.32
-68223.1
1361.09
-68542.4
1283.91
-68842.7
1207.77
-69124.2
1132.69
-69387.3
1058.67
-69632.1
985.719
-69859
913.842
-70068.2
843.046
-70260
773.336
-70434.7
704.718
-70592.5
637.198
-70733.7
570.78
-70858.6
505.469
-70967.5
441.267
-71060.7
378.178
-71138.3
316.205
-71200.8
255.35
-71248.4
195.615
-71281.3
137.001
-71299.9
79.5079
-71304.4
23.1361
-71295.1
-32.115
-71272.3
-86.2466
-71236.2
-139.26
-71187.3
-191.159
-71125.6
-241.944
-71051.5
-291.62
-70965.4
-340.191
-70867.3
-387.662
-70757.7
-434.036
-70636.8
-479.32
-70504.9
-523.521
-70362.2
-566.643
-70209.1
-608.695
-70045.7
-649.684
-69872.3
-689.619
-69689.2
-728.506
-69496.7
-766.356
-69295.1
-803.178
-69084.5
-838.981
-68865.2
-873.776
-68637.5
-907.573
-68401.6
-940.382
-68157.7
-972.215
-67906.2
-1003.08
-67647.2
-1033
-67381
-1061.97
-67107.8
-1090.02
-66827.9
-1117.15
-66541.4
-1143.37
-66248.6
-1168.71
-65949.7
-1193.16
-65645
-1216.76
-65334.5
-1239.5
-65018.7
-1261.4
-64697.5
-1282.49
-64371.3
-1302.76
-64040.3
-1322.24
-63704.6
-1340.93
-63364.5
-1358.86
-63020.1
-1376.03
-62671.6
-1392.47
-62319.2
-1408.18
-61963
-1423.17
-61603.4
-1437.48
-61240.3
-1451.1
-60874
-1464.05
-60504.6
-1476.34
-60132.4
-1488
-59757.4
-1499.03
-59379.8
-1509.45
-58999.8
-1519.27
-58617.5
-1528.5
-58233.1
-1537.17
-57846.6
-1545.28
-57458.3
-1552.84
-57068.2
-1559.87
-56676.6
-1566.39
-56283.4
-1572.4
-55888.9
-1577.92
-55493.1
-1582.96
-55096.2
-1587.54
-54698.3
-1591.67
-54299.4
-1595.35
-53899.8
-1598.6
-53499.5
-1601.44
-53098.6
-1603.88
-52697.2
-1605.92
-52295.4
-1607.58
-51893.3
-1608.87
-51491
-1609.8
-51088.5
-1610.38
-50686
-1610.63
-50283.5
-1610.55
-49881.2
-1610.16
-49479
-1609.46
-49077.1
-1608.46
-48675.5
-1607.18
-48274.3
-1605.62
-47873.6
-1603.8
-47473.4
-1601.72
-47073.9
-1599.39
-46674.9
-1596.83
-46276.7
-1594.04
-45879.3
-1591.02
-45482.6
-1587.79
-45086.9
-1584.36
-44692
-1580.73
-44298.1
-1576.91
-43905.3
-1572.91
-43513.4
-1568.74
-43122.7
-1564.41
-42733.1
-1559.91
-42344.7
-1555.27
-41957.5
-1550.48
-41571.5
-1545.55
-41186.8
-1540.49
-40803.5
-1535.3
-40421.4
-1530
-40040.7
-1524.59
-39661.4
-1519.06
-39283.5
-1513.44
-38907.1
-1507.72
-38532.1
-1501.92
-38158.6
-1496.03
-37786.6
-1490.05
-37416.1
-1484.01
-37047.2
-1477.9
-36679.8
-1471.72
-36314
-1465.48
-35949.7
-1459.19
-35587.1
-1452.85
-35226
-1446.46
-34866.6
-1440.02
-34508.8
-1433.55
-34152.6
-1427.05
-33798.1
-1420.52
-33445.2
-1413.95
-33094
-1407.37
-32744.4
-1400.76
-32396.5
-1394.14
-32050.3
-1387.51
-31705.7
-1380.87
-31362.8
-1374.21
-31021.6
-1367.56
-30682
-1360.9
-30344.1
-1354.25
-30007.9
-1347.6
-29673.4
-1340.96
-29340.5
-1334.33
-29009.3
-1327.7
-28679.7
-1321.1
-28351.8
-1314.51
-28025.5
-1307.94
-27700.9
-1301.39
-27377.9
-1294.86
-27056.6
-1288.36
-26736.8
-1281.89
-26418.7
-1275.44
-26102.2
-1269.02
-25787.3
-1262.64
-25474
-1256.29
-25162.3
-1249.98
-24852.1
-1243.71
-24543.5
-1237.47
-24236.5
-1231.27
-23931
-1225.12
-23627.1
-1219
-23324.7
-1212.94
-23023.7
-1206.91
-22724.3
-1200.94
-22426.4
-1195.01
-22129.9
-1189.13
-21834.9
-1183.3
-21541.4
-1177.52
-21249.3
-1171.79
-20958.6
-1166.12
-20669.3
-1160.5
-20381.4
-1154.93
-20094.9
-1149.42
-19809.8
-1143.96
-19526
-1138.56
-19243.6
-1133.22
-18962.5
-1127.94
-18682.7
-1122.71
-18404.2
-1117.55
-18126.9
-1112.45
-17851
-1107.4
-17576.3
-1102.42
-17302.8
-1097.5
-17030.5
-1092.64
-16759.5
-1087.84
-16489.6
-1083.11
-16220.9
-1078.44
-15953.4
-1073.83
-15687
-1069.29
-15421.7
-1064.82
-15157.5
-1060.4
-14894.4
-1056.06
-14632.4
-1051.78
-14371.5
-1047.56
-14111.6
-1043.41
-13852.7
-1039.33
-13594.8
-1035.32
-13337.9
-1031.37
-13082
-1027.49
-12827
-1023.67
-12573
-1019.93
-12319.9
-1016.25
-12067.7
-1012.64
-11816.4
-1009.1
-11565.9
-1005.62
-11316.4
-1002.22
-11067.6
-998.879
-10819.7
-995.61
-10572.6
-992.41
-10326.2
-989.278
-10080.6
-986.216
-9835.83
-983.222
-9591.74
-980.298
-9348.37
-977.443
-9105.69
-974.657
-8863.7
-971.94
-8622.37
-969.293
-8381.69
-966.715
-8141.63
-964.206
-7902.19
-961.767
-7663.34
-959.398
-7425.07
-957.098
-7187.36
-954.867
-6950.19
-952.707
-6713.54
-950.615
-6477.4
-948.594
-6241.75
-946.642
-6006.57
-944.76
-5771.85
-942.947
-5537.56
-941.205
-5303.69
-939.531
-5070.22
-937.928
-4837.14
-936.394
-4604.43
-934.931
-4372.06
-933.536
-4140.03
-932.212
-3908.31
-930.957
-3676.88
-929.773
-3445.74
-928.658
-3214.86
-927.612
-2984.23
-926.637
-2753.82
-925.733
-2523.62
-924.898
-2293.61
-924.135
-2063.77
-923.443
-1834.09
-922.823
-1604.55
-922.277
-1375.13
-921.804
-1145.8
-921.407
-916.557
-921.085
-687.374
-920.84
-458.234
-920.672
-229.116
-920.578
-920.558
-2116.63
10813.9
-4228.32
10785.7
-6329.54
10720.2
-8414.83
10619.3
-10478.9
10485.7
-12516.8
10322.2
-14523.9
10132.4
-16496
9920.37
-18429.6
9690.4
-20321.4
9446.67
-22168.9
9193.18
-23969.9
8933.58
-25722.9
8671.22
-27426.9
8409.06
-29081.4
8149.7
-30686.3
7895.32
-32242.1
7647.66
-33749.4
7408
-35209.3
7177.21
-36623.2
6955.77
-37992.6
6743.84
-39319
6541.31
-40604.3
6347.86
-41850.1
6163.04
-43058.1
5986.25
-44229.9
5816.86
-45367.1
5654.17
-46471.1
5497.48
-47543.2
5346.12
-48584.6
5199.44
-49596.4
5056.85
-50579.4
4917.8
-51534.5
4781.82
-52462.4
4648.5
-53363.7
4517.5
-54238.8
4388.55
-55088.4
4261.41
-55912.6
4135.91
-56712
4011.92
-57486.8
3889.34
-58237.4
3768.1
-58963.9
3648.15
-59666.7
3529.46
-60346.1
3411.99
-61002.2
3295.75
-61635.4
3180.7
-62245.8
3066.86
-62833.7
2954.22
-63399.4
2842.79
-63943
2732.56
-64464.9
2623.55
-64965.3
2515.75
-65444.4
2409.18
-65902.5
2303.85
-66339.7
2199.76
-66756.5
2096.92
-67152.9
1995.34
-67529.3
1895.04
-67886
1796.01
-68223.1
1698.28
-68541
1601.84
-68839.9
1506.71
-69120
1412.9
-69381.7
1320.42
-69625.1
1229.27
-69850.7
1139.47
-70058.5
1051.01
-70249
963.916
-70422.4
878.186
-70578.9
793.827
-70718.8
710.846
-70842.5
629.248
-70950.1
549.037
-71042
470.218
-71118.5
392.794
-71179.7
316.768
-71226.1
242.142
-71257.9
168.916
-71275.3
97.0929
-71278.6
26.6713
-71268.2
-42.3491
-71244.3
-109.97
-71207.2
-176.193
-71157.2
-241.022
-71094.4
-304.459
-71019.4
-366.51
-70932.2
-427.179
-70833.1
-486.471
-70722.6
-544.394
-70600.7
-600.954
-70467.9
-656.158
-70324.3
-710.016
-70170.2
-762.535
-70005.9
-813.725
-69831.7
-863.597
-69647.8
-912.16
-69454.5
-959.427
-69252
-1005.41
-69040.6
-1050.12
-68820.6
-1093.56
-68592.1
-1135.76
-68355.5
-1176.73
-68111
-1216.47
-67858.8
-1255.01
-67599.2
-1292.36
-67332.3
-1328.53
-67058.5
-1363.54
-66778
-1397.41
-66490.9
-1430.15
-66197.6
-1461.77
-65898.2
-1492.3
-65592.9
-1521.75
-65282
-1550.13
-64965.6
-1577.47
-64644
-1603.78
-64317.4
-1629.08
-63986
-1653.38
-63649.9
-1676.71
-63309.4
-1699.08
-62964.6
-1720.5
-62615.8
-1741.01
-62263.1
-1760.6
-61906.7
-1779.31
-61546.7
-1797.15
-61183.3
-1814.14
-60816.8
-1830.29
-60447.2
-1845.63
-60074.8
-1860.16
-59699.6
-1873.91
-59321.9
-1886.9
-58941.7
-1899.14
-58559.3
-1910.65
-58174.7
-1921.45
-57788.1
-1931.55
-57399.7
-1940.97
-57009.5
-1949.73
-56617.8
-1957.85
-56224.6
-1965.33
-55830
-1972.21
-55434.2
-1978.48
-55037.3
-1984.17
-54639.4
-1989.3
-54240.6
-1993.88
-53841
-1997.92
-53440.8
-2001.44
-53039.9
-2004.46
-52638.6
-2006.99
-52236.9
-2009.04
-51834.9
-2010.63
-51432.6
-2011.77
-51030.3
-2012.48
-50627.9
-2012.77
-50225.6
-2012.65
-49823.4
-2012.13
-49421.3
-2011.24
-49019.6
-2009.97
-48618.2
-2008.36
-48217.2
-2006.39
-47816.7
-2004.1
-47416.7
-2001.48
-47017.4
-1998.56
-46618.7
-1995.34
-46220.7
-1991.83
-45823.5
-1988.04
-45427.1
-1983.99
-45031.5
-1979.69
-44637
-1975.14
-44243.3
-1970.36
-43850.7
-1965.35
-43459.2
-1960.12
-43068.8
-1954.69
-42679.5
-1949.06
-42291.4
-1943.24
-41904.4
-1937.24
-41518.8
-1931.07
-41134.4
-1924.74
-40751.3
-1918.25
-40369.6
-1911.62
-39989.2
-1904.84
-39610.3
-1897.93
-39232.7
-1890.89
-38856.6
-1883.74
-38482
-1876.47
-38108.8
-1869.1
-37737.2
-1861.64
-37367
-1854.07
-36998.5
-1846.43
-36631.4
-1838.7
-36266
-1830.9
-35902.1
-1823.03
-35539.8
-1815.1
-35179.1
-1807.11
-34820.1
-1799.06
-34462.6
-1790.97
-34106.8
-1782.84
-33752.7
-1774.67
-33400.2
-1766.46
-33049.4
-1758.23
-32700.2
-1749.97
-32352.7
-1741.69
-32006.8
-1733.4
-31662.6
-1725.09
-31320.1
-1716.78
-30979.3
-1708.46
-30640.1
-1700.14
-30302.6
-1691.82
-29966.8
-1683.51
-29632.6
-1675.21
-29300.1
-1666.91
-28969.3
-1658.64
-28640.1
-1650.38
-28312.6
-1642.14
-27986.7
-1633.93
-27662.5
-1625.74
-27339.9
-1617.59
-27018.9
-1609.46
-26699.6
-1601.37
-26381.9
-1593.31
-26065.8
-1585.29
-25751.3
-1577.32
-25438.4
-1569.38
-25127
-1561.49
-24817.3
-1553.65
-24509.1
-1545.86
-24202.4
-1538.11
-23897.4
-1530.42
-23593.8
-1522.78
-23291.8
-1515.2
-22991.2
-1507.67
-22692.2
-1500.2
-22394.7
-1492.79
-22098.6
-1485.45
-21804
-1478.16
-21510.8
-1470.94
-21219.1
-1463.78
-20928.8
-1456.69
-20639.9
-1449.67
-20352.4
-1442.71
-20066.3
-1435.82
-19781.6
-1429.01
-19498.2
-1422.26
-19216.1
-1415.59
-18935.4
-1408.99
-18656
-1402.46
-18377.9
-1396
-18101
-1389.63
-17825.4
-1383.32
-17551.1
-1377.1
-17278
-1370.95
-17006.1
-1364.88
-16735.4
-1358.89
-16465.9
-1352.97
-16197.6
-1347.14
-15930.4
-1341.38
-15664.4
-1335.71
-15399.5
-1330.12
-15135.7
-1324.6
-14873
-1319.17
-14611.3
-1313.83
-14350.7
-1308.56
-14091.2
-1303.38
-13832.7
-1298.28
-13575.2
-1293.26
-13318.6
-1288.33
-13063.1
-1283.48
-12808.5
-1278.71
-12554.8
-1274.03
-12302.1
-1269.44
-12050.2
-1264.93
-11799.3
-1260.5
-11549.2
-1256.16
-11300
-1251.9
-11051.6
-1247.73
-10804
-1243.65
-10557.2
-1239.65
-10311.2
-1235.74
-10066
-1231.91
-9821.55
-1228.17
-9577.81
-1224.52
-9334.79
-1220.95
-9092.47
-1217.47
-8850.82
-1214.08
-8609.84
-1210.77
-8369.5
-1207.55
-8129.8
-1204.42
-7890.7
-1201.37
-7652.2
-1198.41
-7414.27
-1195.54
-7176.9
-1192.75
-6940.07
-1190.05
-6703.77
-1187.44
-6467.97
-1184.91
-6232.66
-1182.47
-5997.82
-1180.12
-5763.44
-1177.86
-5529.49
-1175.68
-5295.96
-1173.59
-5062.83
-1171.59
-4830.09
-1169.67
-4597.71
-1167.84
-4365.69
-1166.1
-4133.99
-1164.45
-3902.61
-1162.88
-3671.52
-1161.4
-3440.72
-1160.01
-3210.17
-1158.7
-2979.87
-1157.48
-2749.8
-1156.35
-2519.94
-1155.31
-2290.26
-1154.36
-2060.76
-1153.49
-1831.42
-1152.72
-1602.21
-1152.03
-1373.12
-1151.44
-1144.13
-1150.95
-915.22
-1150.55
-686.372
-1150.24
-457.565
-1150.03
-228.78
-1149.91
-1149.89
-2089.76
12903.3
-4175.14
12870.8
-6251.51
12796.2
-8314.24
12681.7
-10358.7
12529.8
-12380.6
12343.6
-14375.6
12127
-16339.9
11884.2
-18269.8
11619.9
-20162.1
11338.5
-22013.9
11044.5
-23822.8
10742
-25586.6
10434.6
-27303.9
10125.9
-28973.5
9818.87
-30594.8
9516.2
-32167.6
9220.06
-33692.2
8932.15
-35169
8653.71
-36599.1
8385.54
-37983.6
8128.05
-39323.9
7881.34
-40621.6
7645.25
-41878.2
7419.4
-43095.4
7203.25
-44274.9
6996.15
-45418.3
6797.37
-46527.1
6606.14
-47602.8
6421.67
-48646.8
6243.21
-49660.1
6070.03
-50643.9
5901.47
-51599.1
5736.92
-52526.6
5575.86
-53427
5417.83
-54301
5262.46
-55149.1
5109.43
-55971.8
4958.51
-56769.5
4809.5
-57542.5
4662.27
-58291.2
4516.71
-59015.8
4372.74
-59716.7
4230.3
-60394.1
4089.37
-61048.3
3949.91
-61679.6
3811.91
-62288.1
3675.35
-62874.1
3540.24
-63437.9
3406.58
-63979.7
3274.36
-64499.8
3143.6
-64998.3
3014.3
-65475.6
2886.48
-65931.9
2760.13
-66367.4
2635.28
-66782.3
2511.93
-67177
2390.09
-67551.7
2269.77
-67906.7
2150.99
-68242.1
2033.75
-68558.3
1918.08
-68855.4
1803.97
-69133.9
1691.45
-69393.9
1580.51
-69635.8
1471.18
-69859.7
1363.46
-70065.9
1257.36
-70254.8
1152.9
-70426.6
1050.07
-70581.5
948.883
-70719.9
849.353
-70842
751.482
-70948.1
655.278
-71038.5