/*--------------------------------*- C++ -*----------------------------------*\
| =========                 |                                                 |
| \\      /  F ield         | OpenFOAM: The Open Source CFD Toolbox           |
|  \\    /   O peration     | Version:  2212                                  |
|   \\  /    A nd           | Website:  www.openfoam.com                      |
|    \\/     M anipulation  |                                                 |
\*---------------------------------------------------------------------------*/
FoamFile
{
    version     2.0;
    format      ascii;
    arch        "LSB;label=32;scalar=64";
    class       volScalarField;
    location    "740";
    object      p_rgh_0;
}
// * * * * * * * * * * * * * * * * * * * * * * * * * * * * * * * * * * * * * //

dimensions      [1 -1 -2 0 0 0 0];

internalField   nonuniform List<scalar> 
204800
(
48.6875
48.6851
48.6797
48.6718
48.6608
48.6467
48.6293
48.6087
48.5847
48.5577
48.5277
48.4948
48.459
48.4206
48.3795
48.3358
48.2896
48.2408
48.1895
48.1358
48.0797
48.0212
47.9603
47.8971
47.8317
47.764
47.6941
47.622
47.5478
47.4715
47.3932
47.3129
47.2306
47.1464
47.0603
46.9724
46.8827
46.7913
46.6982
46.6035
46.5072
46.4093
46.31
46.2092
46.107
46.0034
45.8986
45.7925
45.6853
45.5768
45.4673
45.3568
45.2453
45.1328
45.0194
44.9053
44.7903
44.6746
44.5582
44.4412
44.3237
44.2056
44.087
43.968
43.8487
43.729
43.609
43.4889
43.3685
43.248
43.1275
43.0069
42.8864
42.7659
42.6455
42.5253
42.4053
42.2855
42.1661
42.0469
41.9282
41.8098
41.692
41.5746
41.4578
41.3415
41.2259
41.1109
40.9966
40.8831
40.7703
40.6583
40.5472
40.4369
40.3275
40.219
40.1115
40.005
39.8995
39.795
39.6916
39.5894
39.4882
39.3882
39.2893
39.1916
39.0952
39
38.906
38.8133
38.7219
38.6318
38.543
38.4555
38.3694
38.2847
38.2014
38.1194
38.0388
37.9597
37.8819
37.8056
37.7307
37.6573
37.5853
37.5148
37.4457
37.3781
37.3119
37.2473
37.1841
37.1223
37.0621
37.0033
36.946
36.8901
36.8358
36.7829
36.7314
36.6814
36.6329
36.5858
36.5401
36.4959
36.4531
36.4117
36.3718
36.3332
36.296
36.2603
36.2259
36.1928
36.1611
36.1308
36.1018
36.0741
36.0477
36.0226
35.9988
35.9763
35.955
35.935
35.9162
35.8986
35.8822
35.867
35.853
35.8401
35.8284
35.8178
35.8083
35.7999
35.7925
35.7863
35.781
35.7768
35.7737
35.7715
35.7703
35.77
35.7707
35.7723
35.7748
35.7782
35.7825
35.7876
35.7936
35.8004
35.808
35.8163
35.8255
35.8354
35.846
35.8573
35.8694
35.8821
35.8955
35.9095
35.9241
35.9394
35.9552
35.9716
35.9886
36.0061
36.0242
36.0427
36.0618
36.0813
36.1012
36.1216
36.1425
36.1637
36.1853
36.2073
36.2297
36.2524
36.2754
36.2988
36.3224
36.3463
36.3705
36.3949
36.4196
36.4445
36.4696
36.4949
36.5203
36.5459
36.5717
36.5976
36.6236
36.6497
36.6759
36.7022
36.7286
36.755
36.7814
36.8079
36.8344
36.8609
36.8874
36.9139
36.9403
36.9667
36.993
37.0193
37.0454
37.0715
37.0975
37.1234
37.1491
37.1748
37.2002
37.2255
37.2507
37.2757
37.3005
37.3251
37.3495
37.3736
37.3976
37.4213
37.4448
37.4681
37.4911
37.5138
37.5362
37.5584
37.5803
37.6019
37.6232
37.6441
37.6648
37.6851
37.7051
37.7248
37.7441
37.7631
37.7817
37.7999
37.8178
37.8353
37.8525
37.8692
37.8855
37.9015
37.9171
37.9322
37.9469
37.9613
37.9752
37.9886
38.0017
38.0143
38.0265
38.0383
38.0496
38.0604
38.0708
38.0808
38.0903
38.0993
38.1079
38.1161
38.1237
38.1309
38.1376
38.1439
38.1496
38.1549
38.1598
38.1641
38.168
38.1714
38.1743
38.1767
38.1786
38.1801
38.181
38.1815
48.6127
48.609
48.6015
48.5909
48.5769
48.5601
48.5403
48.5178
48.4925
48.4646
48.4339
48.4005
48.3645
48.326
48.2848
48.2411
48.1949
48.1461
48.0949
48.0412
47.9852
47.9267
47.866
47.8029
47.7375
47.6699
47.6001
47.5282
47.4541
47.3779
47.2998
47.2196
47.1374
47.0534
46.9674
46.8797
46.7902
46.6989
46.606
46.5114
46.4153
46.3176
46.2184
46.1178
46.0158
45.9124
45.8078
45.7019
45.5948
45.4866
45.3773
45.2669
45.1556
45.0433
44.9302
44.8162
44.7014
44.5859
44.4698
44.353
44.2356
44.1177
43.9994
43.8806
43.7615
43.642
43.5223
43.4023
43.2822
43.1619
43.0416
42.9212
42.8009
42.6806
42.5605
42.4405
42.3207
42.2011
42.0819
41.963
41.8444
41.7263
41.6087
41.4915
41.3749
41.2588
41.1434
41.0287
40.9146
40.8012
40.6887
40.5769
40.4659
40.3559
40.2467
40.1384
40.0311
39.9248
39.8195
39.7152
39.612
39.5099
39.4089
39.3091
39.2104
39.1129
39.0167
38.9216
38.8278
38.7353
38.6441
38.5541
38.4655
38.3782
38.2923
38.2077
38.1245
38.0427
37.9623
37.8833
37.8057
37.7295
37.6548
37.5815
37.5096
37.4392
37.3703
37.3028
37.2368
37.1723
37.1092
37.0476
36.9874
36.9288
36.8716
36.8158
36.7616
36.7088
36.6574
36.6075
36.5591
36.5121
36.4665
36.4224
36.3797
36.3384
36.2985
36.26
36.2229
36.1872
36.1529
36.1199
36.0883
36.058
36.0291
36.0015
35.9751
35.9501
35.9264
35.9039
35.8826
35.8627
35.8439
35.8264
35.81
35.7948
35.7809
35.768
35.7563
35.7457
35.7363
35.7279
35.7206
35.7143
35.7091
35.7049
35.7018
35.6996
35.6984
35.6981
35.6988
35.7004
35.7029
35.7064
35.7106
35.7158
35.7217
35.7285
35.7361
35.7445
35.7536
35.7635
35.7741
35.7854
35.7974
35.8101
35.8235
35.8375
35.8521
35.8673
35.8832
35.8996
35.9165
35.934
35.952
35.9705
35.9896
36.009
36.029
36.0493
36.0701
36.0913
36.1129
36.1349
36.1572
36.1799
36.2029
36.2262
36.2498
36.2737
36.2978
36.3222
36.3468
36.3717
36.3967
36.422
36.4474
36.4729
36.4987
36.5245
36.5505
36.5766
36.6027
36.629
36.6553
36.6817
36.7081
36.7345
36.7609
36.7874
36.8138
36.8403
36.8666
36.893
36.9193
36.9455
36.9716
36.9976
37.0236
37.0494
37.0751
37.1007
37.1261
37.1514
37.1765
37.2014
37.2262
37.2507
37.2751
37.2992
37.3232
37.3468
37.3703
37.3935
37.4164
37.4391
37.4615
37.4837
37.5055
37.5271
37.5483
37.5693
37.5899
37.6102
37.6301
37.6498
37.669
37.688
37.7066
37.7248
37.7426
37.7601
37.7772
37.7939
37.8102
37.8262
37.8417
37.8568
37.8715
37.8858
37.8997
37.9132
37.9262
37.9388
37.9509
37.9627
37.974
37.9848
37.9952
38.0051
38.0146
38.0237
38.0322
38.0403
38.048
38.0552
38.0619
38.0681
38.0739
38.0792
38.084
38.0883
38.0922
38.0955
38.0984
38.1009
38.1028
38.1042
38.1052
38.1057
48.5958
48.5921
48.5847
48.5741
48.5602
48.5435
48.5237
48.5012
48.4759
48.4479
48.4171
48.3838
48.3477
48.3091
48.2679
48.2241
48.1779
48.1291
48.0778
48.0241
47.968
47.9096
47.8488
47.7856
47.7203
47.6526
47.5828
47.5109
47.4368
47.3606
47.2824
47.2022
47.12
47.036
46.95
46.8623
46.7727
46.6815
46.5885
46.494
46.3978
46.3001
46.2009
46.1003
45.9982
45.8949
45.7902
45.6843
45.5772
45.469
45.3597
45.2493
45.138
45.0257
44.9126
44.7986
44.6838
44.5683
44.4522
44.3354
44.218
44.1001
43.9818
43.863
43.7438
43.6244
43.5046
43.3847
43.2646
43.1443
43.024
42.9036
42.7833
42.663
42.5429
42.4229
42.3031
42.1836
42.0643
41.9454
41.8269
41.7088
41.5911
41.474
41.3573
41.2413
41.1259
41.0112
40.8971
40.7838
40.6712
40.5594
40.4485
40.3384
40.2292
40.121
40.0137
39.9074
39.8021
39.6978
39.5947
39.4926
39.3916
39.2918
39.1931
39.0957
38.9994
38.9044
38.8106
38.7181
38.6269
38.537
38.4484
38.3611
38.2752
38.1906
38.1074
38.0257
37.9453
37.8663
37.7887
37.7125
37.6378
37.5646
37.4927
37.4224
37.3534
37.286
37.22
37.1555
37.0924
37.0308
36.9707
36.912
36.8549
36.7992
36.7449
36.6921
36.6408
36.5909
36.5425
36.4955
36.45
36.4059
36.3632
36.3219
36.2821
36.2436
36.2065
36.1709
36.1365
36.1036
36.072
36.0417
36.0128
35.9852
35.9589
35.9339
35.9102
35.8877
35.8665
35.8465
35.8278
35.8103
35.7939
35.7788
35.7648
35.752
35.7403
35.7297
35.7203
35.7119
35.7046
35.6984
35.6932
35.6891
35.6859
35.6837
35.6825
35.6823
35.683
35.6847
35.6872
35.6906
35.6949
35.7
35.706
35.7128
35.7204
35.7288
35.738
35.7478
35.7585
35.7698
35.7818
35.7945
35.8079
35.8219
35.8366
35.8518
35.8676
35.884
35.901
35.9185
35.9365
35.9551
35.9741
35.9936
36.0135
36.0339
36.0547
36.0759
36.0975
36.1195
36.1418
36.1645
36.1875
36.2108
36.2344
36.2583
36.2824
36.3068
36.3315
36.3563
36.3814
36.4066
36.432
36.4576
36.4833
36.5092
36.5352
36.5612
36.5874
36.6137
36.64
36.6664
36.6928
36.7192
36.7457
36.7721
36.7985
36.825
36.8514
36.8777
36.904
36.9302
36.9563
36.9824
37.0083
37.0341
37.0599
37.0854
37.1109
37.1361
37.1612
37.1862
37.2109
37.2355
37.2598
37.284
37.3079
37.3316
37.355
37.3782
37.4012
37.4239
37.4463
37.4684
37.4903
37.5118
37.533
37.554
37.5746
37.5949
37.6149
37.6345
37.6538
37.6727
37.6913
37.7095
37.7274
37.7448
37.7619
37.7786
37.795
37.8109
37.8264
37.8415
37.8562
37.8705
37.8844
37.8979
37.9109
37.9235
37.9357
37.9474
37.9587
37.9695
37.9799
37.9899
37.9993
38.0084
38.0169
38.025
38.0327
38.0399
38.0466
38.0528
38.0586
38.0639
38.0687
38.073
38.0769
38.0803
38.0831
38.0856
38.0875
38.0889
38.0899
38.0904
48.527
48.5229
48.5147
48.503
48.4878
48.4697
48.4488
48.4253
48.3991
48.3704
48.3391
48.3053
48.2689
48.23
48.1887
48.1448
48.0984
48.0495
47.9982
47.9445
47.8884
47.83
47.7692
47.7061
47.6407
47.5732
47.5034
47.4315
47.3574
47.2813
47.2032
47.123
47.0409
46.957
46.8711
46.7834
46.694
46.6028
46.51
46.4155
46.3194
46.2218
46.1227
46.0222
45.9203
45.817
45.7124
45.6067
45.4997
45.3916
45.2824
45.1721
45.0609
44.9488
44.8357
44.7219
44.6072
44.4919
44.3758
44.2592
44.1419
44.0242
43.906
43.7873
43.6683
43.549
43.4294
43.3096
43.1896
43.0695
42.9493
42.8291
42.7089
42.5887
42.4687
42.3489
42.2292
42.1098
41.9907
41.872
41.7536
41.6356
41.5181
41.4011
41.2846
41.1688
41.0535
40.9389
40.825
40.7118
40.5993
40.4877
40.3769
40.267
40.158
40.0499
39.9427
39.8365
39.7314
39.6273
39.5242
39.4223
39.3215
39.2218
39.1232
39.0259
38.9298
38.8349
38.7412
38.6489
38.5578
38.468
38.3795
38.2924
38.2066
38.1221
38.0391
37.9574
37.8771
37.7983
37.7208
37.6448
37.5702
37.497
37.4253
37.355
37.2862
37.2189
37.153
37.0886
37.0256
36.9641
36.9041
36.8456
36.7885
36.7329
36.6787
36.626
36.5748
36.525
36.4767
36.4298
36.3843
36.3403
36.2977
36.2565
36.2167
36.1783
36.1413
36.1057
36.0715
36.0386
36.0071
35.9769
35.948
35.9205
35.8942
35.8693
35.8456
35.8232
35.8021
35.7821
35.7634
35.746
35.7297
35.7146
35.7007
35.6879
35.6762
35.6657
35.6563
35.648
35.6407
35.6345
35.6294
35.6252
35.6221
35.62
35.6188
35.6186
35.6193
35.621
35.6236
35.627
35.6313
35.6365
35.6425
35.6493
35.6569
35.6653
35.6744
35.6843
35.695
35.7063
35.7184
35.7311
35.7445
35.7585
35.7731
35.7883
35.8042
35.8206
35.8375
35.855
35.8731
35.8916
35.9106
35.9301
35.95
35.9704
35.9912
36.0124
36.034
36.056
36.0783
36.1009
36.1239
36.1472
36.1708
36.1947
36.2188
36.2432
36.2678
36.2926
36.3177
36.3429
36.3683
36.3939
36.4196
36.4454
36.4714
36.4974
36.5236
36.5498
36.5761
36.6024
36.6288
36.6552
36.6817
36.7081
36.7345
36.7609
36.7873
36.8136
36.8398
36.866
36.8922
36.9182
36.9441
36.9699
36.9956
37.0211
37.0465
37.0718
37.0969
37.1218
37.1465
37.171
37.1953
37.2195
37.2434
37.267
37.2905
37.3136
37.3366
37.3592
37.3816
37.4037
37.4255
37.4471
37.4683
37.4892
37.5098
37.5301
37.55
37.5696
37.5889
37.6078
37.6264
37.6446
37.6624
37.6798
37.6969
37.7136
37.7299
37.7458
37.7613
37.7764
37.7911
37.8054
37.8193
37.8327
37.8457
37.8583
37.8705
37.8822
37.8934
37.9043
37.9147
37.9246
37.9341
37.9431
37.9516
37.9597
37.9674
37.9745
37.9812
37.9875
37.9932
37.9985
38.0033
38.0077
38.0115
38.0149
38.0178
38.0202
38.0221
38.0236
38.0245
38.025
48.4992
48.4953
48.4872
48.4757
48.4607
48.4428
48.4219
48.3985
48.3723
48.3436
48.3122
48.2784
48.2419
48.203
48.1615
48.1175
48.0711
48.0221
47.9708
47.917
47.8608
47.8023
47.7414
47.6783
47.6129
47.5453
47.4754
47.4035
47.3294
47.2532
47.175
47.0949
47.0127
46.9287
46.8428
46.7551
46.6656
46.5744
46.4815
46.387
46.2909
46.1933
46.0941
45.9936
45.8916
45.7883
45.6838
45.5779
45.4709
45.3628
45.2536
45.1433
45.0321
44.9199
44.8068
44.693
44.5783
44.4629
44.3469
44.2302
44.1129
43.9952
43.8769
43.7583
43.6392
43.5199
43.4003
43.2804
43.1604
43.0403
42.9201
42.7999
42.6797
42.5596
42.4395
42.3197
42.2
42.0806
41.9615
41.8428
41.7244
41.6064
41.4889
41.3719
41.2554
41.1395
41.0243
40.9097
40.7957
40.6826
40.5701
40.4585
40.3477
40.2378
40.1288
40.0207
39.9135
39.8074
39.7023
39.5982
39.4951
39.3932
39.2924
39.1927
39.0942
38.9969
38.9008
38.8059
38.7123
38.6199
38.5289
38.4391
38.3506
38.2635
38.1778
38.0934
38.0103
37.9287
37.8484
37.7696
37.6922
37.6162
37.5416
37.4685
37.3968
37.3265
37.2578
37.1904
37.1246
37.0602
36.9973
36.9358
36.8758
36.8173
36.7603
36.7047
36.6506
36.5979
36.5467
36.497
36.4487
36.4018
36.3564
36.3124
36.2699
36.2287
36.189
36.1506
36.1137
36.0781
36.0439
36.011
35.9795
35.9494
35.9206
35.8931
35.8669
35.8419
35.8183
35.7959
35.7748
35.7549
35.7363
35.7189
35.7026
35.6875
35.6737
35.6609
35.6493
35.6388
35.6294
35.6211
35.6139
35.6078
35.6026
35.5985
35.5955
35.5933
35.5922
35.592
35.5928
35.5945
35.5971
35.6006
35.6049
35.6101
35.6161
35.623
35.6306
35.639
35.6482
35.6581
35.6688
35.6802
35.6922
35.705
35.7184
35.7324
35.7471
35.7623
35.7782
35.7946
35.8116
35.8291
35.8472
35.8657
35.8848
35.9043
35.9242
35.9446
35.9654
35.9867
36.0083
36.0303
36.0526
36.0753
36.0983
36.1216
36.1452
36.1691
36.1932
36.2176
36.2423
36.2671
36.2921
36.3174
36.3428
36.3684
36.3941
36.4199
36.4459
36.472
36.4981
36.5244
36.5507
36.577
36.6034
36.6299
36.6563
36.6827
36.7092
36.7356
36.7619
36.7883
36.8145
36.8407
36.8669
36.8929
36.9188
36.9446
36.9703
36.9959
37.0213
37.0465
37.0716
37.0965
37.1213
37.1458
37.1701
37.1942
37.2181
37.2418
37.2652
37.2884
37.3114
37.334
37.3564
37.3785
37.4003
37.4219
37.4431
37.464
37.4846
37.5049
37.5248
37.5444
37.5637
37.5826
37.6012
37.6194
37.6372
37.6547
37.6717
37.6884
37.7047
37.7207
37.7362
37.7513
37.766
37.7802
37.7941
37.8076
37.8206
37.8332
37.8453
37.857
37.8683
37.8791
37.8895
37.8994
37.9089
37.9179
37.9265
37.9346
37.9422
37.9494
37.9561
37.9623
37.9681
37.9734
37.9782
37.9825
37.9864
37.9897
37.9926
37.995
37.997
37.9984
37.9994
37.9999
48.4359
48.4318
48.4234
48.4115
48.3961
48.3776
48.3562
48.3322
48.3055
48.2764
48.2446
48.2104
48.1737
48.1345
48.0928
48.0487
48.0021
47.953
47.9015
47.8477
47.7915
47.7329
47.672
47.6088
47.5434
47.4757
47.4059
47.3339
47.2598
47.1837
47.1055
47.0253
46.9432
46.8592
46.7733
46.6856
46.5961
46.505
46.4121
46.3176
46.2215
46.1239
46.0249
45.9243
45.8224
45.7192
45.6146
45.5089
45.4019
45.2938
45.1846
45.0744
44.9632
44.8511
44.7381
44.6243
44.5097
44.3944
44.2784
44.1617
44.0446
43.9268
43.8087
43.6901
43.5711
43.4518
43.3323
43.2125
43.0926
42.9726
42.8524
42.7323
42.6122
42.4921
42.3722
42.2524
42.1328
42.0135
41.8945
41.7758
41.6575
41.5396
41.4222
41.3052
41.1889
41.0731
40.9579
40.8434
40.7296
40.6165
40.5041
40.3926
40.2819
40.1721
40.0632
39.9551
39.8481
39.742
39.637
39.533
39.4301
39.3282
39.2275
39.1279
39.0295
38.9323
38.8363
38.7415
38.648
38.5557
38.4647
38.3751
38.2867
38.1997
38.114
38.0297
37.9468
37.8652
37.7851
37.7063
37.629
37.5531
37.4786
37.4056
37.334
37.2638
37.1951
37.1279
37.0621
36.9978
36.935
36.8736
36.8137
36.7553
36.6984
36.6429
36.5888
36.5363
36.4851
36.4355
36.3873
36.3405
36.2951
36.2512
36.2087
36.1677
36.128
36.0897
36.0529
36.0174
35.9832
35.9505
35.919
35.8889
35.8602
35.8327
35.8066
35.7818
35.7582
35.7359
35.7148
35.695
35.6764
35.659
35.6429
35.6279
35.614
35.6013
35.5898
35.5794
35.57
35.5618
35.5546
35.5485
35.5434
35.5394
35.5363
35.5343
35.5332
35.5331
35.5339
35.5356
35.5382
35.5417
35.5461
35.5513
35.5574
35.5643
35.5719
35.5804
35.5896
35.5996
35.6103
35.6217
35.6338
35.6465
35.6599
35.674
35.6887
35.704
35.7199
35.7363
35.7533
35.7709
35.7889
35.8075
35.8265
35.8461
35.866
35.8864
35.9073
35.9285
35.9501
35.9721
35.9945
36.0172
36.0402
36.0635
36.0871
36.111
36.1351
36.1595
36.1842
36.209
36.2341
36.2593
36.2847
36.3103
36.336
36.3619
36.3878
36.4139
36.4401
36.4663
36.4926
36.519
36.5454
36.5718
36.5982
36.6246
36.6511
36.6775
36.7038
36.7301
36.7564
36.7826
36.8087
36.8347
36.8607
36.8865
36.9121
36.9377
36.9631
36.9883
37.0134
37.0383
37.063
37.0876
37.1119
37.136
37.1599
37.1835
37.207
37.2301
37.2531
37.2757
37.2981
37.3202
37.342
37.3635
37.3847
37.4056
37.4262
37.4465
37.4664
37.486
37.5053
37.5242
37.5428
37.5609
37.5788
37.5962
37.6133
37.63
37.6463
37.6622
37.6777
37.6928
37.7074
37.7217
37.7356
37.749
37.762
37.7746
37.7867
37.7984
37.8097
37.8205
37.8309
37.8408
37.8503
37.8593
37.8679
37.876
37.8836
37.8908
37.8975
37.9037
37.9094
37.9147
37.9195
37.9239
37.9277
37.9311
37.934
37.9364
37.9383
37.9398
37.9407
37.9412
48.4012
48.3973
48.3891
48.3774
48.3622
48.3439
48.3227
48.2988
48.2721
48.2429
48.2112
48.1769
48.1401
48.1008
48.059
48.0147
47.968
47.9189
47.8673
47.8134
47.757
47.6984
47.6374
47.5741
47.5086
47.4408
47.3709
47.2989
47.2247
47.1485
47.0702
46.99
46.9078
46.8237
46.7378
46.65
46.5605
46.4692
46.3763
46.2818
46.1856
46.088
45.9888
45.8883
45.7863
45.683
45.5784
45.4726
45.3655
45.2574
45.1482
45.0379
44.9267
44.8145
44.7014
44.5876
44.4729
44.3575
44.2415
44.1248
44.0076
43.8898
43.7716
43.653
43.534
43.4147
43.2951
43.1753
43.0553
42.9352
42.8151
42.6949
42.5747
42.4547
42.3347
42.2149
42.0953
41.9759
41.8569
41.7382
41.6199
41.5019
41.3845
41.2676
41.1512
41.0354
40.9202
40.8056
40.6918
40.5787
40.4664
40.3548
40.2441
40.1343
40.0254
39.9174
39.8103
39.7043
39.5992
39.4952
39.3923
39.2905
39.1898
39.0902
38.9918
38.8946
38.7986
38.7038
38.6103
38.5181
38.4271
38.3375
38.2491
38.1621
38.0765
37.9922
37.9093
37.8278
37.7477
37.6689
37.5916
37.5158
37.4413
37.3683
37.2968
37.2267
37.158
37.0908
37.0251
36.9608
36.898
36.8367
36.7769
36.7185
36.6616
36.6061
36.5521
36.4996
36.4485
36.3989
36.3507
36.304
36.2587
36.2149
36.1724
36.1314
36.0918
36.0536
36.0167
35.9813
35.9472
35.9145
35.8831
35.8531
35.8244
35.797
35.7709
35.7461
35.7226
35.7003
35.6793
35.6596
35.641
35.6237
35.6076
35.5926
35.5788
35.5662
35.5547
35.5443
35.5351
35.5269
35.5197
35.5137
35.5087
35.5047
35.5017
35.4997
35.4986
35.4985
35.4994
35.5012
35.5038
35.5074
35.5118
35.5171
35.5232
35.5301
35.5378
35.5463
35.5556
35.5656
35.5763
35.5878
35.5999
35.6127
35.6262
35.6403
35.655
35.6703
35.6863
35.7028
35.7198
35.7374
35.7555
35.7741
35.7932
35.8127
35.8327
35.8532
35.874
35.8953
35.9169
35.939
35.9614
35.9841
36.0071
36.0305
36.0541
36.078
36.1022
36.1266
36.1513
36.1762
36.2012
36.2265
36.2519
36.2775
36.3033
36.3292
36.3551
36.3812
36.4074
36.4337
36.46
36.4864
36.5128
36.5392
36.5657
36.5921
36.6186
36.645
36.6714
36.6977
36.724
36.7502
36.7763
36.8024
36.8283
36.8541
36.8798
36.9054
36.9308
36.956
36.9811
37.006
37.0308
37.0553
37.0796
37.1038
37.1277
37.1513
37.1748
37.198
37.2209
37.2435
37.2659
37.288
37.3099
37.3314
37.3526
37.3735
37.3941
37.4144
37.4343
37.4539
37.4732
37.4921
37.5107
37.5289
37.5467
37.5641
37.5812
37.5979
37.6142
37.6301
37.6456
37.6607
37.6754
37.6897
37.7035
37.717
37.73
37.7426
37.7547
37.7664
37.7777
37.7885
37.7989
37.8088
37.8183
37.8273
37.8359
37.844
37.8516
37.8588
37.8655
37.8717
37.8774
37.8827
37.8875
37.8919
37.8957
37.8991
37.902
37.9044
37.9063
37.9078
37.9087
37.9092
48.3424
48.3384
48.3302
48.3184
48.3031
48.2847
48.2632
48.239
48.2121
48.1827
48.1506
48.1161
48.079
48.0395
47.9975
47.9531
47.9062
47.857
47.8053
47.7512
47.6947
47.636
47.5749
47.5115
47.4459
47.3781
47.3082
47.2361
47.1618
47.0856
47.0073
46.927
46.8447
46.7606
46.6746
46.5868
46.4973
46.406
46.3131
46.2185
46.1223
46.0247
45.9255
45.8249
45.7229
45.6196
45.515
45.4091
45.3021
45.1939
45.0847
44.9744
44.8632
44.751
44.6379
44.524
44.4094
44.294
44.178
44.0613
43.9441
43.8263
43.7081
43.5895
43.4705
43.3512
43.2316
43.1118
42.9919
42.8718
42.7517
42.6315
42.5114
42.3913
42.2714
42.1516
42.032
41.9127
41.7937
41.675
41.5567
41.4388
41.3214
41.2045
41.0882
40.9724
40.8572
40.7427
40.629
40.5159
40.4036
40.2921
40.1815
40.0717
39.9628
39.8548
39.7478
39.6418
39.5369
39.4329
39.33
39.2283
39.1276
39.0281
38.9298
38.8326
38.7367
38.642
38.5486
38.4564
38.3655
38.2759
38.1877
38.1007
38.0152
37.9309
37.8481
37.7667
37.6866
37.608
37.5307
37.4549
37.3806
37.3076
37.2362
37.1661
37.0976
37.0304
36.9648
36.9006
36.8379
36.7767
36.7169
36.6586
36.6017
36.5464
36.4925
36.44
36.389
36.3395
36.2914
36.2447
36.1995
36.1557
36.1134
36.0724
36.0329
35.9948
35.958
35.9226
35.8886
35.856
35.8247
35.7947
35.7661
35.7388
35.7128
35.6881
35.6646
35.6424
35.6215
35.6018
35.5834
35.5661
35.55
35.5352
35.5214
35.5089
35.4974
35.4871
35.4779
35.4698
35.4627
35.4567
35.4518
35.4478
35.4449
35.443
35.442
35.442
35.4429
35.4447
35.4474
35.451
35.4555
35.4608
35.467
35.474
35.4818
35.4903
35.4996
35.5097
35.5204
35.5319
35.5441
35.557
35.5705
35.5846
35.5994
35.6148
35.6307
35.6473
35.6643
35.682
35.7001
35.7187
35.7378
35.7574
35.7775
35.798
35.8188
35.8401
35.8618
35.8839
35.9063
35.929
35.9521
35.9755
35.9992
36.0231
36.0473
36.0718
36.0964
36.1213
36.1464
36.1717
36.1972
36.2228
36.2486
36.2744
36.3005
36.3266
36.3528
36.379
36.4054
36.4318
36.4582
36.4846
36.5111
36.5376
36.564
36.5905
36.6168
36.6432
36.6695
36.6957
36.7218
36.7479
36.7738
36.7996
36.8253
36.8509
36.8763
36.9016
36.9267
36.9516
36.9763
37.0009
37.0252
37.0494
37.0733
37.0969
37.1204
37.1435
37.1665
37.1891
37.2115
37.2336
37.2555
37.277
37.2982
37.3191
37.3397
37.36
37.3799
37.3996
37.4188
37.4377
37.4563
37.4745
37.4923
37.5098
37.5268
37.5435
37.5598
37.5757
37.5912
37.6063
37.621
37.6353
37.6491
37.6626
37.6756
37.6882
37.7003
37.712
37.7233
37.7341
37.7445
37.7544
37.7639
37.7729
37.7815
37.7896
37.7972
37.8044
37.811
37.8173
37.823
37.8283
37.8331
37.8374
37.8413
37.8447
37.8476
37.85
37.8519
37.8534
37.8543
37.8548
48.3036
48.2997
48.2916
48.28
48.2649
48.2466
48.2253
48.2012
48.1744
48.1449
48.1129
48.0783
48.0412
48.0016
47.9595
47.9149
47.8679
47.8185
47.7667
47.7125
47.6559
47.597
47.5359
47.4724
47.4067
47.3388
47.2687
47.1965
47.1221
47.0457
46.9673
46.887
46.8046
46.7204
46.6343
46.5464
46.4568
46.3654
46.2724
46.1777
46.0814
45.9837
45.8844
45.7837
45.6816
45.5782
45.4735
45.3676
45.2605
45.1522
45.0429
44.9325
44.8212
44.7089
44.5958
44.4818
44.3671
44.2516
44.1355
44.0188
43.9015
43.7836
43.6654
43.5467
43.4276
43.3082
43.1886
43.0687
42.9487
42.8286
42.7084
42.5881
42.4679
42.3478
42.2278
42.108
41.9884
41.869
41.7499
41.6312
41.5128
41.3949
41.2775
41.1605
41.0441
40.9283
40.8132
40.6986
40.5848
40.4717
40.3594
40.2479
40.1372
40.0274
39.9185
39.8105
39.7035
39.5975
39.4925
39.3886
39.2857
39.1839
39.0833
38.9838
38.8854
38.7883
38.6924
38.5977
38.5043
38.4121
38.3212
38.2316
38.1434
38.0565
37.9709
37.8868
37.8039
37.7225
37.6425
37.5639
37.4867
37.4109
37.3366
37.2637
37.1922
37.1223
37.0537
36.9867
36.9211
36.8569
36.7942
36.7331
36.6733
36.6151
36.5583
36.503
36.4491
36.3967
36.3458
36.2963
36.2483
36.2017
36.1565
36.1128
36.0705
36.0296
35.9901
35.9521
35.9154
35.8801
35.8461
35.8135
35.7823
35.7524
35.7239
35.6966
35.6707
35.646
35.6226
35.6005
35.5797
35.56
35.5416
35.5245
35.5085
35.4936
35.48
35.4675
35.4561
35.4459
35.4367
35.4287
35.4217
35.4158
35.4109
35.407
35.4041
35.4022
35.4013
35.4014
35.4023
35.4042
35.407
35.4107
35.4153
35.4207
35.4269
35.4339
35.4417
35.4504
35.4597
35.4698
35.4807
35.4922
35.5045
35.5174
35.5309
35.5451
35.56
35.5754
35.5914
35.608
35.6251
35.6428
35.661
35.6797
35.6988
35.7185
35.7386
35.7591
35.78
35.8014
35.8231
35.8452
35.8677
35.8905
35.9136
35.937
35.9607
35.9847
36.0089
36.0334
36.0582
36.0831
36.1082
36.1336
36.1591
36.1847
36.2105
36.2364
36.2625
36.2886
36.3148
36.3412
36.3675
36.3939
36.4204
36.4469
36.4734
36.4999
36.5264
36.5528
36.5792
36.6056
36.6319
36.6582
36.6843
36.7104
36.7363
36.7622
36.7879
36.8135
36.8389
36.8642
36.8894
36.9143
36.9391
36.9636
36.988
37.0121
37.036
37.0597
37.0832
37.1064
37.1293
37.152
37.1744
37.1965
37.2184
37.2399
37.2612
37.2821
37.3027
37.323
37.3429
37.3625
37.3818
37.4007
37.4193
37.4375
37.4553
37.4728
37.4899
37.5066
37.5229
37.5388
37.5543
37.5694
37.5841
37.5984
37.6123
37.6257
37.6387
37.6513
37.6635
37.6752
37.6865
37.6973
37.7077
37.7176
37.7271
37.7361
37.7446
37.7527
37.7604
37.7675
37.7742
37.7805
37.7862
37.7915
37.7963
37.8007
37.8045
37.8079
37.8108
37.8132
37.8151
37.8166
37.8175
37.818
48.2484
48.2445
48.2365
48.225
48.2098
48.1915
48.1702
48.146
48.119
48.0894
48.0572
48.0224
47.9851
47.9453
47.903
47.8583
47.8112
47.7616
47.7096
47.6553
47.5986
47.5396
47.4782
47.4147
47.3488
47.2808
47.2106
47.1383
47.0639
46.9874
46.9089
46.8284
46.746
46.6617
46.5755
46.4876
46.3978
46.3064
46.2132
46.1185
46.0222
45.9243
45.825
45.7242
45.6221
45.5186
45.4138
45.3078
45.2006
45.0923
44.9829
44.8725
44.7611
44.6488
44.5356
44.4215
44.3067
44.1912
44.0751
43.9583
43.8409
43.723
43.6047
43.4859
43.3668
43.2474
43.1277
43.0078
42.8878
42.7676
42.6474
42.5271
42.4069
42.2867
42.1667
42.0468
41.9272
41.8078
41.6887
41.57
41.4516
41.3337
41.2162
41.0993
40.9829
40.867
40.7519
40.6373
40.5235
40.4104
40.2981
40.1866
40.0759
39.9661
39.8573
39.7493
39.6423
39.5363
39.4313
39.3274
39.2246
39.1228
39.0222
38.9227
38.8244
38.7273
38.6314
38.5368
38.4434
38.3512
38.2604
38.1709
38.0827
37.9958
37.9103
37.8262
37.7434
37.6621
37.5821
37.5035
37.4264
37.3507
37.2764
37.2036
37.1322
37.0623
36.9938
36.9268
36.8613
36.7972
36.7346
36.6735
36.6138
36.5557
36.499
36.4437
36.3899
36.3376
36.2868
36.2374
36.1894
36.1429
36.0978
36.0542
36.012
35.9711
35.9318
35.8938
35.8572
35.8219
35.7881
35.7556
35.7244
35.6946
35.6661
35.639
35.6131
35.5885
35.5652
35.5432
35.5224
35.5029
35.4846
35.4675
35.4516
35.4368
35.4233
35.4108
35.3996
35.3894
35.3803
35.3724
35.3655
35.3596
35.3548
35.351
35.3482
35.3464
35.3456
35.3457
35.3467
35.3487
35.3516
35.3553
35.3599
35.3654
35.3717
35.3788
35.3867
35.3954
35.4048
35.415
35.4259
35.4375
35.4498
35.4628
35.4764
35.4907
35.5056
35.521
35.5371
35.5538
35.571
35.5887
35.6069
35.6257
35.6449
35.6646
35.6847
35.7053
35.7263
35.7477
35.7695
35.7916
35.8141
35.837
35.8601
35.8836
35.9074
35.9314
35.9557
35.9802
36.005
36.0299
36.0551
36.0805
36.106
36.1317
36.1575
36.1835
36.2096
36.2357
36.262
36.2884
36.3148
36.3412
36.3677
36.3942
36.4207
36.4472
36.4738
36.5002
36.5267
36.5531
36.5794
36.6057
36.6319
36.658
36.6839
36.7098
36.7356
36.7612
36.7866
36.8119
36.8371
36.862
36.8868
36.9114
36.9358
36.9599
36.9838
37.0076
37.031
37.0542
37.0772
37.0999
37.1223
37.1444
37.1663
37.1878
37.2091
37.23
37.2507
37.2709
37.2909
37.3105
37.3298
37.3488
37.3673
37.3855
37.4034
37.4208
37.4379
37.4546
37.471
37.4869
37.5024
37.5175
37.5322
37.5465
37.5604
37.5738
37.5868
37.5994
37.6116
37.6233
37.6346
37.6454
37.6558
37.6657
37.6752
37.6842
37.6928
37.7009
37.7085
37.7157
37.7224
37.7286
37.7344
37.7397
37.7445
37.7488
37.7527
37.756
37.7589
37.7613
37.7633
37.7647
37.7657
37.7662
48.207
48.2032
48.1953
48.1839
48.169
48.1508
48.1296
48.1055
48.0786
48.049
48.0167
47.9819
47.9445
47.9047
47.8623
47.8174
47.7702
47.7205
47.6683
47.6139
47.557
47.4979
47.4364
47.3727
47.3067
47.2386
47.1682
47.0958
47.0212
46.9446
46.8659
46.7853
46.7028
46.6183
46.532
46.4439
46.3541
46.2625
46.1692
46.0743
45.9779
45.8799
45.7804
45.6795
45.5773
45.4736
45.3687
45.2626
45.1553
45.0469
44.9373
44.8268
44.7153
44.6028
44.4895
44.3754
44.2605
44.1448
44.0285
43.9116
43.7942
43.6762
43.5577
43.4389
43.3197
43.2001
43.0803
42.9604
42.8402
42.7199
42.5996
42.4792
42.3589
42.2387
42.1186
41.9986
41.8789
41.7594
41.6402
41.5214
41.403
41.285
41.1675
41.0504
40.934
40.8181
40.7028
40.5883
40.4744
40.3613
40.2489
40.1373
40.0266
39.9168
39.8079
39.6999
39.5929
39.4868
39.3818
39.2779
39.175
39.0732
38.9726
38.8731
38.7748
38.6777
38.5818
38.4871
38.3937
38.3016
38.2108
38.1213
38.0331
37.9463
37.8608
37.7766
37.6939
37.6126
37.5326
37.4541
37.377
37.3013
37.2271
37.1543
37.0829
37.013
36.9446
36.8777
36.8122
36.7481
36.6856
36.6245
36.5649
36.5068
36.4501
36.3949
36.3412
36.289
36.2382
36.1888
36.1409
36.0945
36.0495
36.0059
35.9638
35.923
35.8837
35.8458
35.8093
35.7741
35.7403
35.7079
35.6768
35.6471
35.6187
35.5916
35.5658
35.5413
35.5181
35.4962
35.4755
35.456
35.4378
35.4208
35.4049
35.3903
35.3768
35.3645
35.3533
35.3432
35.3342
35.3263
35.3195
35.3137
35.309
35.3053
35.3026
35.3008
35.3001
35.3003
35.3014
35.3035
35.3064
35.3102
35.3149
35.3205
35.3269
35.334
35.342
35.3508
35.3603
35.3706
35.3815
35.3932
35.4056
35.4187
35.4324
35.4467
35.4617
35.4772
35.4934
35.5101
35.5273
35.5451
35.5634
35.5823
35.6015
35.6213
35.6415
35.6622
35.6832
35.7047
35.7265
35.7487
35.7713
35.7942
35.8174
35.8409
35.8647
35.8888
35.9132
35.9378
35.9626
35.9876
36.0128
36.0382
36.0638
36.0896
36.1155
36.1415
36.1676
36.1938
36.2201
36.2465
36.273
36.2994
36.326
36.3525
36.3791
36.4057
36.4322
36.4587
36.4852
36.5117
36.538
36.5643
36.5905
36.6167
36.6427
36.6686
36.6944
36.72
36.7455
36.7708
36.796
36.821
36.8458
36.8704
36.8948
36.919
36.9429
36.9667
36.9902
37.0134
37.0364
37.0591
37.0815
37.1037
37.1256
37.1472
37.1684
37.1894
37.21
37.2303
37.2503
37.27
37.2893
37.3082
37.3268
37.345
37.3629
37.3804
37.3975
37.4142
37.4305
37.4464
37.462
37.4771
37.4918
37.5061
37.52
37.5335
37.5465
37.5591
37.5713
37.583
37.5943
37.6051
37.6155
37.6254
37.6349
37.6439
37.6525
37.6606
37.6683
37.6754
37.6821
37.6884
37.6941
37.6994
37.7042
37.7086
37.7124
37.7158
37.7187
37.7211
37.7231
37.7245
37.7255
37.726
48.1548
48.151
48.1432
48.1318
48.1169
48.0988
48.0776
48.0534
48.0264
47.9968
47.9644
47.9294
47.8919
47.8519
47.8093
47.7644
47.7169
47.667
47.6148
47.5601
47.5031
47.4438
47.3822
47.3183
47.2522
47.1839
47.1134
47.0408
46.9661
46.8894
46.8106
46.7299
46.6472
46.5626
46.4762
46.388
46.298
46.2062
46.1129
46.0179
45.9213
45.8232
45.7236
45.6225
45.5201
45.4164
45.3114
45.2051
45.0977
44.9892
44.8795
44.7689
44.6572
44.5447
44.4312
44.317
44.202
44.0862
43.9698
43.8528
43.7352
43.6172
43.4986
43.3797
43.2603
43.1407
43.0208
42.9008
42.7805
42.6602
42.5397
42.4193
42.2989
42.1786
42.0584
41.9384
41.8186
41.699
41.5798
41.4609
41.3424
41.2244
41.1068
40.9897
40.8732
40.7573
40.642
40.5274
40.4134
40.3003
40.1879
40.0763
39.9656
39.8557
39.7468
39.6387
39.5317
39.4257
39.3207
39.2167
39.1138
39.012
38.9114
38.8119
38.7136
38.6165
38.5206
38.426
38.3326
38.2405
38.1497
38.0602
37.9721
37.8852
37.7998
37.7157
37.633
37.5517
37.4718
37.3933
37.3162
37.2406
37.1664
37.0937
37.0224
36.9525
36.8842
36.8173
36.7519
36.6879
36.6254
36.5644
36.5049
36.4468
36.3902
36.3351
36.2815
36.2293
36.1786
36.1293
36.0815
36.0351
35.9902
35.9467
35.9047
35.864
35.8248
35.7869
35.7505
35.7154
35.6817
35.6494
35.6184
35.5888
35.5605
35.5335
35.5078
35.4834
35.4603
35.4384
35.4178
35.3985
35.3803
35.3634
35.3477