/*--------------------------------*- C++ -*----------------------------------*\
| =========                 |                                                 |
| \\      /  F ield         | OpenFOAM: The Open Source CFD Toolbox           |
|  \\    /   O peration     | Version:  2212                                  |
|   \\  /    A nd           | Website:  www.openfoam.com                      |
|    \\/     M anipulation  |                                                 |
\*---------------------------------------------------------------------------*/
FoamFile
{
    version     2.0;
    format      ascii;
    arch        "LSB;label=32;scalar=64";
    class       surfaceScalarField;
    location    "740";
    object      phi;
}
// * * * * * * * * * * * * * * * * * * * * * * * * * * * * * * * * * * * * * //

dimensions      [1 0 -1 0 0 0 0];

oriented        oriented;

internalField   nonuniform List<scalar> 
408640
(
-1090.76
1088.87
-2148.47
1057.4
-3144.77
995.993
-4063.07
918.004
-4900.27
836.912
-5664.22
763.676
-6369.32
704.825
-7032.01
662.431
-7667.51
635.234
-8287.93
620.148
-8901.79
613.597
-9514.41
612.363
-10128.7
613.98
-10745.7
616.774
-11365.7
619.738
-11988.3
622.338
-12612.9
624.343
-13238.9
625.694
-13865.5
626.418
-14492.4
626.573
-15118.9
626.229
-15744.6
625.447
-16369.1
624.285
-16992.2
622.787
-17613.4
620.992
-18232.6
618.931
-18849.5
616.629
-19463.9
614.107
-20075.6
611.384
-20684.3
608.474
-21290
605.389
-21892.4
602.14
-22491.4
598.737
-23086.8
595.188
-23678.6
591.5
-24266.6
587.678
-24850.5
583.729
-25430.5
579.659
-26006.2
575.47
-26577.7
571.169
-27144.7
566.757
-27707.2
562.241
-28265.1
557.621
-28818.3
552.903
-29366.6
548.088
-29910.1
543.18
-30448.5
538.181
-30981.9
533.094
-31510.1
527.922
-32033
522.668
-32550.6
517.332
-33062.8
511.919
-33569.5
506.43
-34070.7
500.867
-34566.2
495.233
-35056
489.53
-35540
483.76
-36018.2
477.925
-36490.5
472.027
-36956.8
466.069
-37417.2
460.053
-37871.4
453.98
-38319.5
447.853
-38761.5
441.673
-39197.2
435.443
-39626.6
429.165
-40049.7
422.841
-40466.5
416.472
-40876.8
410.061
-41280.7
403.61
-41678.1
397.12
-42068.9
390.594
-42453.2
384.034
-42830.9
377.441
-43202
370.817
-43566.5
364.164
-43924.2
357.485
-44275.2
350.781
-44619.6
344.053
-44957.1
337.304
-45287.9
330.536
-45611.9
323.75
-45929.1
316.949
-46239.5
310.133
-46543.1
303.305
-46839.8
296.467
-47129.7
289.62
-47412.7
282.766
-47688.9
275.906
-47958.2
269.043
-48220.6
262.178
-48476.2
255.312
-48724.9
248.448
-48966.7
241.586
-49201.7
234.73
-49429.8
227.879
-49651.1
221.035
-49865.5
214.201
-50073.1
207.378
-50273.9
200.566
-50467.9
193.768
-50655.2
186.985
-50835.6
180.218
-51009.3
173.469
-51176.3
166.739
-51336.5
160.03
-51490.1
153.342
-51637
146.677
-51777.3
140.036
-51910.9
133.421
-52038
126.832
-52158.5
120.272
-52272.4
113.74
-52379.9
107.238
-52480.9
100.768
-52575.4
94.3293
-52663.5
87.9242
-52745.3
81.5534
-52820.7
75.2179
-52889.8
68.9187
-52952.7
62.6565
-53009.3
56.4324
-53059.8
50.2473
-53104.1
44.1019
-53142.3
37.997
-53174.4
31.9336
-53200.5
25.9123
-53220.6
19.9338
-53234.8
13.999
-53243.1
8.10841
-53245.5
2.26275
-53242.2
-3.53735
-53233.1
-9.29129
-53218.3
-14.9985
-53197.8
-20.6584
-53171.7
-26.2705
-53140
-31.8343
-53102.8
-37.3493
-53060.2
-42.8151
-53012.1
-48.2312
-52958.7
-53.5973
-52899.9
-58.9129
-52835.9
-64.1778
-52766.6
-69.3915
-52692.2
-74.5538
-52612.7
-79.6644
-52528.1
-84.7231
-52438.6
-89.7295
-52344
-94.6836
-52244.6
-99.5851
-52140.3
-104.434
-52031.2
-109.23
-51917.3
-113.972
-51798.8
-118.662
-51675.6
-123.298
-51547.9
-127.882
-51415.6
-132.411
-51278.8
-136.888
-51137.7
-141.311
-50992.1
-145.68
-50842.2
-149.997
-50688.1
-154.26
-50529.7
-158.469
-50367.2
-162.626
-50200.6
-166.729
-50029.9
-170.78
-49855.2
-174.778
-49676.6
-178.723
-49494.1
-182.615
-49307.8
-186.455
-49117.6
-190.243
-48923.7
-193.979
-48726.2
-197.663
-48525
-201.296
-48320.2
-204.877
-48111.9
-208.407
-47900.1
-211.887
-47684.8
-215.315
-47466.2
-218.694
-47244.3
-222.023
-47019.1
-225.302
-46790.6
-228.531
-46559
-231.712
-46324.2
-234.844
-46086.4
-237.927
-45845.5
-240.963
-45601.6
-243.95
-45354.8
-246.891
-45105.1
-249.785
-44852.5
-252.632
-44597.1
-255.433
-44339
-258.188
-44078.2
-260.897
-43814.7
-263.562
-43548.6
-266.182
-43279.9
-268.758
-43008.6
-271.291
-42734.9
-273.78
-42458.8
-276.226
-42180.2
-278.629
-41899.3
-280.991
-41616
-283.311
-41330.5
-285.59
-41042.7
-287.828
-40752.7
-290.026
-40460.6
-292.184
-40166.3
-294.302
-39870
-296.382
-39571.6
-298.423
-39271.3
-300.427
-38968.9
-302.392
-38664.6
-304.321
-38358.5
-306.213
-38050.5
-308.069
-37740.6
-309.889
-37429
-311.673
-37115.6
-313.423
-36800.5
-315.139
-36483.8
-316.821
-36165.3
-318.469
-35845.3
-320.084
-35523.7
-321.667
-35200.5
-323.217
-34875.8
-324.736
-34549.6
-326.224
-34222
-327.681
-33892.9
-329.107
-33562.5
-330.504
-33230.7
-331.871
-32897.5
-333.21
-32563
-334.519
-32227.3
-335.801
-31890.3
-337.055
-31552
-338.282
-31212.6
-339.482
-30872
-340.655
-30530.2
-341.802
-30187.3
-342.924
-29843.4
-344.021
-29498.3
-345.093
-29152.2
-346.14
-28805.1
-347.164
-28457
-348.164
-28107.9
-349.141
-27757.9
-350.095
-27406.9
-351.027
-27055
-351.937
-26702.2
-352.825
-26348.6
-353.691
-25994.1
-354.537
-25638.8
-355.363
-25282.7
-356.168
-24925.8
-356.953
-24568.1
-357.719
-24209.7
-358.466
-23850.5
-359.194
-23490.7
-359.904
-23130.2
-360.595
-22768.9
-361.269
-22407.1
-361.925
-22044.6
-362.564
-21681.4
-363.186
-21317.7
-363.792
-20953.4
-364.382
-20588.5
-364.955
-20223
-365.513
-19857
-366.056
-19490.5
-366.584
-19123.5
-367.097
-18755.9
-367.595
-18387.9
-368.079
-18019.4
-368.549
-17650.5
-369.006
-17281.1
-369.449
-16911.3
-369.879
-16541.1
-370.296
-16170.4
-370.7
-15799.4
-371.092
-15428
-371.471
-15056.2
-371.839
-14684.1
-372.194
-14311.6
-372.538
-13938.8
-372.871
-13565.7
-373.192
-13192.3
-373.502
-12818.6
-373.802
-12444.5
-374.091
-12070.2
-374.369
-11695.7
-374.638
-11320.9
-374.896
-10945.8
-375.144
-10570.5
-375.383
-10194.9
-375.612
-9819.19
-375.831
-9443.22
-376.041
-9067.06
-376.243
-8690.7
-376.435
-8314.16
-376.618
-7937.44
-376.793
-7560.56
-376.959
-7183.53
-377.117
-6806.34
-377.267
-6429.01
-377.409
-6051.54
-377.543
-5673.95
-377.67
-5296.25
-377.788
-4918.43
-377.9
-4540.5
-378.004
-4162.49
-378.1
-3784.38
-378.19
-3406.19
-378.272
-3027.92
-378.347
-2649.59
-378.415
-2271.19
-378.476
-1892.75
-378.529
-1514.25
-378.574
-1135.72
-378.612
-757.166
-378.64
-378.588
-378.66
-378.67
-1071.89
2160.45
-2113.66
2098.87
-3098.44
1980.47
-4010.38
1829.65
-4846.13
1672.37
-5612.39
1529.67
-6322.19
1414.35
-6990.68
1330.65
-7632.09
1276.38
-8257.92
1245.71
-8876.39
1231.81
-9492.75
1228.46
-10109.9
1230.86
-10729.1
1235.74
-11350.7
1241.08
-11974.5
1245.81
-12599.9
1249.47
-13226.3
1251.9
-13853.3
1253.14
-14480.3
1253.29
-15106.8
1252.48
-15732.4
1250.82
-16356.8
1248.42
-16979.7
1245.37
-17600.7
1241.73
-18219.6
1237.57
-18836.2
1232.94
-19450.2
1227.87
-20061.5
1222.41
-20669.9
1216.57
-21275.1
1210.39
-21877.1
1203.88
-22475.7
1197.06
-23070.8
1189.96
-23662.1
1182.57
-24249.6
1174.92
-24833.2
1167.02
-25412.7
1158.88
-25988
1150.5
-26559
1141.89
-27125.5
1133.07
-27687.6
1124.03
-28245
1114.79
-28797.8
1105.35
-29345.7
1095.72
-29888.7
1085.91
-30426.7
1075.91
-30959.6
1065.74
-31487.3
1055.39
-32009.8
1044.88
-32526.9
1034.21
-33038.7
1023.39
-33544.9
1012.41
-34045.6
1001.29
-34540.7
990.019
-35030
978.615
-35513.6
967.077
-35991.4
955.409
-36463.2
943.616
-36929.2
931.702
-37389
919.671
-37842.9
907.528
-38290.6
895.276
-38732.1
882.919
-39167.4
870.462
-39596.4
857.909
-40019.1
845.263
-40435.4
832.529
-40845.3
819.71
-41248.8
806.81
-41645.8
793.834
-42036.2
780.786
-42420.1
767.668
-42797.4
754.485
-43168.1
741.241
-43532.2
727.94
-43889.5
714.585
-44240.2
701.18
-44584.1
687.729
-44921.3
674.236
-45251.7
660.703
-45575.4
647.136
-45892.2
633.537
-46202.3
619.91
-46505.5
606.258
-46801.9
592.586
-47091.4
578.896
-47374.1
565.192
-47649.9
551.477
-47918.9
537.755
-48181
524.03
-48436.2
510.303
-48684.6
496.58
-48926.1
482.862
-49160.8
469.153
-49388.6
455.456
-49609.6
441.774
-49823.7
428.111
-50031.1
414.469
-50231.6
400.851
-50425.3
387.26
-50612.3
373.699
-50792.4
360.171
-50965.9
346.678
-51132.6
333.223
-51292.6
319.809
-51445.9
306.439
-51592.6
293.115
-51732.6
279.839
-51866
266.614
-51992.9
253.442
-52113.1
240.326
-52226.9
227.268
-52334.1
214.27
-52434.9
201.335
-52529.3
188.464
-52617.2
175.659
-52698.8
162.923
-52774
150.258
-52843
137.665
-52905.7
125.146
-52962.1
112.704
-53012.4
100.339
-53056.6
88.0542
-53094.6
75.8503
-53126.6
63.7291
-53152.6
51.6923
-53172.6
39.7412
-53186.6
27.8772
-53194.8
16.1018
-53197.2
4.41625
-53193.7
-7.1782
-53184.5
-18.6803
-53169.6
-30.089
-53149
-41.4031
-53122.8
-52.6216
-53091.1
-63.7434
-53053.8
-74.7677
-53011.1
-85.6936
-52963
-96.5201
-52909.5
-107.247
-52850.7
-117.872
-52786.6
-128.396
-52717.3
-138.818
-52642.9
-149.137
-52563.4
-159.353
-52478.8
-169.464
-52389.2
-179.472
-52294.6
-189.374
-52195.2
-199.172
-52090.9
-208.864
-51981.8
-218.45
-51868
-227.93
-51749.5
-237.304
-51626.3
-246.571
-51498.6
-255.732
-51366.4
-264.786
-51229.6
-273.733
-51088.5
-282.574
-50943
-291.308
-50793.2
-299.935
-50639.1
-308.456
-50480.8
-316.87
-50318.4
-325.178
-50151.8
-333.38
-49981.2
-341.476
-49806.6
-349.467
-49628.1
-357.352
-49445.7
-365.132
-49259.5
-372.807
-49069.4
-380.378
-48875.6
-387.845
-48678.2
-395.208
-48477.1
-402.469
-48272.5
-409.627
-48064.3
-416.682
-47852.6
-423.637
-47637.5
-430.49
-47419.1
-437.242
-47197.3
-443.895
-46972.2
-450.448
-46743.9
-456.903
-46512.4
-463.26
-46277.8
-469.519
-46040.2
-475.682
-45799.5
-481.749
-45555.8
-487.72
-45309.1
-493.597
-45059.6
-499.38
-44807.2
-505.07
-44552.1
-510.668
-44294.1
-516.174
-44033.5
-521.589
-43770.2
-526.915
-43504.3
-532.152
-43235.8
-537.3
-42964.8
-542.361
-42691.3
-547.335
-42415.4
-552.223
-42137.1
-557.027
-41856.4
-561.746
-41573.4
-566.383
-41288.1
-570.937
-41000.5
-575.41
-40710.8
-579.802
-40418.9
-584.115
-40124.9
-588.349
-39828.9
-592.505
-39530.8
-596.584
-39230.7
-600.587
-38928.6
-604.516
-38624.6
-608.37
-38318.7
-612.15
-38011
-615.859
-37701.4
-619.496
-37390.1
-623.063
-37077
-626.559
-36762.2
-629.988
-36445.7
-633.348
-36127.6
-636.642
-35807.8
-639.869
-35486.5
-643.032
-35163.6
-646.13
-34839.2
-649.165
-34513.4
-652.138
-34186.1
-655.049
-33857.3
-657.9
-33527.2
-660.691
-33195.7
-663.423
-32862.8
-666.098
-32528.7
-668.715
-32193.2
-671.276
-31856.6
-673.782
-31518.6
-676.233
-31179.5
-678.63
-30839.3
-680.975
-30497.9
-683.268
-30155.3
-685.509
-29811.7
-687.701
-29467
-689.843
-29121.2
-691.936
-28774.5
-693.981
-28426.7
-695.979
-28078
-697.931
-27728.3
-699.838
-27377.6
-701.699
-27026.1
-703.517
-26673.7
-705.291
-26320.4
-707.023
-25966.3
-708.713
-25611.3
-710.362
-25255.6
-711.971
-24899
-713.54
-24541.7
-715.07
-24183.7
-716.563
-23824.9
-718.017
-23465.5
-719.435
-23105.3
-720.816
-22744.5
-722.162
-22383
-723.474
-22020.8
-724.75
-21658.1
-725.994
-21294.7
-727.204
-20930.8
-728.382
-20566.3
-729.528
-20201.2
-730.643
-19835.6
-731.727
-19469.5
-732.781
-19102.8
-733.806
-18735.7
-734.802
-18368
-735.769
-17999.9
-736.708
-17631.4
-737.62
-17262.4
-738.505
-16893
-739.364
-16523.1
-740.197
-16152.9
-741.005
-15782.3
-741.787
-15411.3
-742.545
-15039.9
-743.279
-14668.2
-743.989
-14296.1
-744.677
-13923.7
-745.341
-13551
-745.983
-13177.9
-746.603
-12804.6
-747.201
-12431
-747.779
-12057.1
-748.335
-11682.9
-748.871
-11308.5
-749.387
-10933.9
-749.883
-10559
-750.359
-10183.8
-750.816
-9808.49
-751.255
-9432.93
-751.675
-9057.17
-752.077
-8681.22
-752.461
-8305.09
-752.827
-7928.79
-753.176
-7552.31
-753.509
-7175.69
-753.824
-6798.91
-754.124
-6421.99
-754.407
-6044.94
-754.675
-5667.76
-754.927
-5290.46
-755.164
-4913.06
-755.387
-4535.55
-755.594
-4157.94
-755.788
-3780.24
-755.966
-3402.47
-756.131
-3024.61
-756.281
-2646.69
-756.417
-2268.71
-756.538
-1890.68
-756.644
-1512.6
-756.735
-1134.49
-756.809
-756.342
-756.867
-378.177
-756.907
-756.929
-1048.52
3208.65
-2069.42
3119.46
-3038.69
2949.43
-3941.8
2732.47
-4775.14
2505.42
-5544.11
2298.37
-6259.98
2129.95
-6936.22
2006.63
-7585.72
1925.61
-8219.09
1878.82
-8844.12
1856.57
-9465.89
1849.96
-10087.3
1852.05
-10709.9
1858.03
-11334
1864.95
-11959.7
1871.18
-12586.4
1875.99
-13213.9
1879.12
-13841.6
1880.58
-14469.1
1880.5
-15095.9
1879.05
-15721.8
1876.38
-16346.3
1872.64
-16969.1
1867.95
-17590
1862.4
-18208.8
1856.09
-18825.2
1849.07
-19439
1841.42
-20050.1
1833.18
-20658.2
1824.39
-21263.1
1815.09
-21864.8
1805.3
-22463.1
1795.05
-23057.8
1784.38
-23648.7
1773.29
-24235.9
1761.8
-24819.1
1749.94
-25398.2
1737.71
-25973.1
1725.13
-26543.7
1712.22
-27109.8
1698.97
-27671.5
1685.42
-28228.5
1671.55
-28780.8
1657.39
-29328.3
1642.94
-29870.9
1628.22
-30408.5
1613.22
-30941
1597.96
-31468.3
1582.44
-31990.4
1566.68
-32507.1
1550.67
-33018.4
1534.43
-33524.3
1517.97
-34024.5
1501.28
-34519.2
1484.39
-35008.1
1467.28
-35491.3
1449.97
-35968.6
1432.47
-36440.1
1414.79
-36905.5
1396.92
-37365
1378.88
-37818.4
1360.66
-38265.7
1342.29
-38706.8
1323.76
-39141.7
1305.07
-39570.3
1286.25
-39992.6
1267.28
-40408.5
1248.18
-40818
1228.96
-41221.1
1209.61
-41617.7
1190.15
-42007.8
1170.58
-42391.3
1150.91
-42768.2
1131.14
-43138.5
1111.28
-43502.2
1091.33
-43859.1
1071.31
-44209.4
1051.2
-44553
1031.03
-44889.8
1010.8
-45219.9
990.504
-45543.2
970.158
-45859.6
949.765
-46169.3
929.33
-46472.2
908.859
-46768.2
888.356
-47057.4
867.827
-47339.7
847.277
-47615.2
826.711
-47883.9
806.135
-48145.6
785.552
-48400.5
764.969
-48648.6
744.39
-48889.8
723.82
-49124.2
703.263
-49351.7
682.724
-49572.4
662.209
-49786.2
641.721
-49993.2
621.264
-50193.5
600.844
-50386.9
580.465
-50573.6
560.131
-50753.5
539.846
-50926.7
519.614
-51093.1
499.439
-51252.9
479.326
-51405.9
459.278
-51552.3
439.299
-51692.1
419.393
-51825.3
399.563
-51951.9
379.813
-52071.9
360.147
-52185.4
340.567
-52292.5
321.078
-52393
301.683
-52487.1
282.384
-52574.9
263.186
-52656.3
244.09
-52731.3
225.1
-52800.1
206.219
-52862.6
187.449
-52918.9
168.793
-52969
150.255
-53012.9
131.835
-53050.8
113.537
-53082.7
95.3639
-53108.5
77.3168
-53128.3
59.3984
-53142.2
41.6108
-53150.3
23.956
-53152.5
6.43595
-53148.9
-10.9474
-53139.5
-28.1923
-53124.5
-45.297
-53103.8
-62.2598
-53077.5
-79.0792
-53045.7
-95.7536
-53008.4
-112.282
-52965.5
-128.662
-52917.3
-144.894
-52863.8
-160.975
-52804.9
-176.905
-52740.8
-192.683
-52671.4
-208.307
-52596.9
-223.777
-52517.3
-239.093
-52432.7
-254.252
-52343.1
-269.255
-52248.5
-284.101
-52149
-298.788
-52044.7
-313.318
-51935.6
-327.689
-51821.7
-341.901
-51703.2
-355.954
-51580.1
-369.847
-51452.4
-383.58
-51320.1
-397.154
-51183.4
-410.567
-51042.3
-423.82
-50896.8
-436.913
-50747
-449.846
-50592.9
-462.62
-50434.7
-475.233
-50272.3
-487.688
-50105.8
-499.983
-49935.3
-512.119
-49760.8
-524.097
-49582.3
-535.917
-49399.9
-547.58
-49213.8
-559.085
-49023.8
-570.434
-48830.1
-581.627
-48632.8
-592.665
-48431.8
-603.549
-48227.2
-614.278
-48019.1
-624.855
-47807.6
-635.279
-47592.6
-645.552
-47374.3
-655.673
-47152.6
-665.646
-46927.6
-675.469
-46699.5
-685.144
-46468.2
-694.673
-46233.7
-704.055
-45996.2
-713.293
-45755.6
-722.386
-45512.1
-731.337
-45265.6
-740.146
-45016.2
-748.814
-44764
-757.343
-44509
-765.733
-44251.3
-773.986
-43990.8
-782.103
-43727.7
-790.086
-43462
-797.934
-43193.7
-805.651
-42922.9
-813.236
-42649.6
-820.692
-42373.9
-828.018
-42095.7
-835.218
-41815.2
-842.292
-41532.4
-849.241
-41247.4
-856.067
-40960.1
-862.77
-40670.6
-869.354
-40378.9
-875.817
-40085.2
-882.163
-39789.3
-888.392
-39491.4
-894.506
-39191.6
-900.506
-38889.8
-906.393
-38586
-912.169
-38280.4
-917.836
-37972.9
-923.394
-37663.6
-928.845
-37352.5
-934.19
-37039.7
-939.431
-36725.1
-944.568
-36408.9
-949.605
-36091.1
-954.541
-35771.6
-959.378
-35450.6
-964.117
-35128
-968.761
-34803.9
-973.309
-34478.3
-977.764
-34151.3
-982.127
-33822.8
-986.399
-33493
-990.582
-33161.8
-994.676
-32829.2
-998.684
-32495.4
-1002.61
-32160.3
-1006.44
-31823.9
-1010.2
-31486.3
-1013.87
-31147.5
-1017.46
-30807.6
-1020.98
-30466.5
-1024.41
-30124.2
-1027.77
-29780.9
-1031.06
-29436.6
-1034.27
-29091.1
-1037.4
-28744.7
-1040.47
-28397.3
-1043.46
-28048.9
-1046.39
-27699.5
-1049.24
-27349.2
-1052.03
-26998
-1054.76
-26645.9
-1057.42
-26293
-1060.01
-25939.2
-1062.54
-25584.6
-1065.01
-25229.2
-1067.42
-24873
-1069.78
-24516.1
-1072.07
-24158.4
-1074.3
-23800
-1076.48
-23440.9
-1078.61
-23081.1
-1080.68
-22720.6
-1082.7
-22359.5
-1084.66
-21997.7
-1086.57
-21635.3
-1088.44
-21272.3
-1090.25
-20908.7
-1092.01
-20544.6
-1093.73
-20179.9
-1095.4
-19814.7
-1097.03
-19448.9
-1098.61
-19082.6
-1100.14
-18715.9
-1101.63
-18348.6
-1103.08
-17980.9
-1104.49
-17612.7
-1105.86
-17244.1
-1107.18
-16875.1
-1108.47
-16505.6
-1109.72
-16135.8
-1110.93
-15765.5
-1112.1
-15394.9
-1113.23
-15023.9
-1114.33
-14652.6
-1115.4
-14280.9
-1116.43
-13908.9
-1117.42
-13536.6
-1118.38
-13163.9
-1119.31
-12791
-1120.21
-12417.8
-1121.07
-12044.3
-1121.91
-11670.5
-1122.71
-11296.5
-1123.48
-10922.2
-1124.23
-10547.7
-1124.94
-10173
-1125.62
-9798.01
-1126.28
-9422.86
-1126.91
-9047.5
-1127.51
-8671.95
-1128.09
-8296.21
-1128.64
-7920.31
-1129.16
-7544.24
-1129.66
-7168.01
-1130.13
-6791.64
-1130.58
-6415.12
-1131
-6038.47
-1131.4
-5661.69
-1131.78
-5284.8
-1132.14
-4907.8
-1132.47
-4530.69
-1132.78
-4153.49
-1133.07
-3776.2
-1133.34
-3398.82
-1133.59
-3021.38
-1133.81
-2643.86
-1134.01
-2266.29
-1134.2
-1888.66
-1134.36
-1510.98
-1134.49
-1133.27
-1134.6
-755.531
-1134.69
-377.77
-1134.75
-1134.78
-1017.63
4225.97
-2011.15
4112.66
-2960.03
3898
-3851.51
3623.65
-4681.65
3335.28
-5454.25
3070.7
-6178.3
2853.73
-6865.04
2693.09
-7525.57
2585.88
-8169.33
2522.32
-8803.44
2490.43
-9432.78
2479.04
-10060.3
2479.32
-10687.7
2485.1
-11315.5
2492.52
-11944
2499.39
-12572.9
2504.68
-13202.1
2507.99
-13831
2509.27
-14459.4
2508.66
-15087
2506.33
-15713.3
2502.46
-16338.2
2497.23
-16961.3
2490.77
-17582.3
2483.22
-18201.2
2474.67
-18817.6
2465.21
-19431.4
2454.92
-20042.3
2443.86
-20650.3
2432.08
-21255.1
2419.62
-21856.6
2406.53
-22454.6
2392.83
-23049.1
2378.57
-23639.8
2363.75
-24226.7
2348.41
-24809.6
2332.57
-25388.4
2316.25
-25963
2299.47
-26533.3
2282.23
-27099.2
2264.56
-27660.5
2246.48
-28217.2
2227.98
-28769.2
2209.09
-29316.3
2189.82
-29858.6
2170.18
-30395.8
2150.18
-30927.9
2129.83
-31454.9
2109.14
-31976.6
2088.11
-32493
2066.77
-33003.9
2045.12
-33509.4
2023.16
-34009.3
2000.91
-34503.6
1978.38
-34992.1
1955.57
-35474.9
1932.5
-35951.9
1909.17
-36423
1885.58
-36888.1
1861.76
-37347.2
1837.7
-37800.2
1813.42
-38247.1
1788.92
-38687.8
1764.22
-39122.3
1739.31
-39550.6
1714.21
-39972.5
1688.92
-40388
1663.46
-40797.2
1637.83
-41199.9
1612.04
-41596.1
1586.1
-41985.8
1560.01
-42368.9
1533.78
-42745.5
1507.43
-43115.4
1480.95
-43478.7
1454.36
-43835.3
1427.66
-44185.2
1400.86
-44528.4
1373.97
-44864.9
1347
-45194.6
1319.94
-45517.5
1292.82
-45833.6
1265.64
-46143
1238.39
-46445.5
1211.1
-46741.1
1183.77
-47030
1156.41
-47312
1129.01
-47587.1
1101.6
-47855.4
1074.17
-48116.8
1046.73
-48371.4
1019.3
-48619.1
991.865
-48860
964.445
-49094
937.044
-49321.2
909.667
-49541.6
882.32
-49755.1
855.01
-49961.8
827.743
-50161.7
800.524
-50354.9
773.36
-50541.2
746.256
-50720.8
719.217
-50893.7
692.249
-51059.8
665.359
-51219.3
638.549
-51372.1
611.827
-51518.2
585.197
-51657.7
558.665
-51790.6
532.234
-51916.9
505.91
-52036.7
479.698
-52149.9
453.601
-52256.7
427.625
-52357
401.774
-52450.9
376.052
-52538.4
350.464
-52619.5
325.012
-52694.3
299.702
-52762.8
274.537
-52825.1
249.521
-52881.2
224.657
-52931
199.948
-52974.8
175.399
-53012.5
151.012
-53044.1
126.791
-53069.7
102.739
-53089.4
78.8581
-53103.1
55.1516
-53110.9
31.6223
-53113
8.27281
-53109.2
-14.8944
-53099.7
-37.877
-53084.5
-60.6726
-53063.6
-83.2791
-53037.2
-105.694
-53005.2
-127.916
-52967.7
-149.943
-52924.7
-171.773
-52876.4
-193.404
-52822.7
-214.835
-52763.7
-236.064
-52699.4
-257.09
-52630
-277.912
-52555.4
-298.528
-52475.7
-318.938
-52390.9
-339.139
-52301.2
-359.132
-52206.5
-378.916
-52107
-398.489
-52002.6
-417.851
-51893.4
-437.002
-51779.5
-455.94
-51660.9
-474.667
-51537.7
-493.18
-51409.9
-511.48
-51277.7
-529.567
-51140.9
-547.441
-50999.7
-565.101
-50854.2
-582.548
-50704.4
-599.782
-50550.3
-616.802
-50392.1
-633.61
-50229.7
-650.205
-50063.2
-666.588
-49892.6
-682.76
-49718.1
-698.72
-49539.7
-714.47
-49357.4
-730.01
-49171.2
-745.34
-48981.3
-760.462
-48787.6
-775.376
-48590.3
-790.083
-48389.4
-804.585
-48184.8
-818.881
-47976.8
-832.973
-47765.3
-846.862
-47550.4
-860.549
-47332.1
-874.035
-47110.5
-887.322
-46885.7
-900.41
-46657.6
-913.301
-46426.4
-925.996
-46192
-938.497
-45954.6
-950.804
-45714.1
-962.919
-45470.7
-974.845
-45224.3
-986.581
-44975.1
-998.129
-44723
-1009.49
-44468.1
-1020.67
-44210.5
-1031.67
-43950.2
-1042.48
-43687.2
-1053.11
-43421.6
-1063.57
-43153.5
-1073.85
-42882.8
-1083.96
-42609.7
-1093.89
-42334.1
-1103.65
-42056.2
-1113.24
-41775.9
-1122.67
-41493.2
-1131.92
-41208.3
-1141.02
-40921.2
-1149.95
-40631.9
-1158.72
-40340.4
-1167.33
-40046.9
-1175.78
-39751.2
-1184.08
-39453.6
-1192.22
-39153.9
-1200.22
-38852.3
-1208.06
-38548.8
-1215.75
-38243.4
-1223.3
-37936.1
-1230.7
-37627
-1237.97
-37316.2
-1245.09
-37003.6
-1252.07
-36689.3
-1258.91
-36373.3
-1265.62
-36055.7
-1272.19
-35736.5
-1278.64
-35415.7
-1284.95
-35093.4
-1291.13
-34769.6
-1297.19
-34444.2
-1303.13
-34117.5
-1308.94
-33789.3
-1314.63
-33459.7
-1320.2
-33128.8
-1325.65
-32796.5
-1330.99
-32463
-1336.22
-32128.1
-1341.33
-31792
-1346.33
-31454.7
-1351.22
-31116.2
-1356.01
-30776.6
-1360.69
-30435.8
-1365.26
-30093.9
-1369.74
-29750.8
-1374.11
-29406.8
-1378.38
-29061.7
-1382.56
-28715.5
-1386.64
-28368.4
-1390.63
-28020.3
-1394.53
-27671.3
-1398.33
-27321.3
-1402.05
-26970.5
-1405.67
-26618.7
-1409.21
-26266.1
-1412.67
-25912.6
-1416.04
-25558.4
-1419.33
-25203.3
-1422.54
-24847.5
-1425.67
-24490.9
-1428.73
-24133.5
-1431.71
-23775.4
-1434.61
-23416.7
-1437.44
-23057.2
-1440.19
-22697.1
-1442.88
-22336.3
-1445.49
-21974.9
-1448.04
-21612.9
-1450.52
-21250.2
-1452.94
-20887
-1455.29
-20523.2
-1457.57
-20158.9
-1459.8
-19794
-1461.96
-19428.6
-1464.06
-19062.7
-1466.11
-18696.3
-1468.1
-18329.4
-1470.02
-17962.1
-1471.9
-17594.3
-1473.72
-17226
-1475.48
-16857.4
-1477.2
-16488.3
-1478.86
-16118.8
-1480.47
-15748.9
-1482.03
-15378.7
-1483.54
-15008.1
-1485.01
-14637.1
-1486.42
-14265.8
-1487.79
-13894.2
-1489.12
-13522.3
-1490.4
-13150
-1491.64
-12777.5
-1492.83
-12404.6
-1493.98
-12031.5
-1495.09
-11658.1
-1496.16
-11284.5
-1497.19
-10910.6
-1498.18
-10536.5
-1499.13
-10162.2
-1500.04
-9787.62
-1500.91
-9412.86
-1501.75
-9037.89
-1502.55
-8662.74
-1503.32
-8287.4
-1504.05
-7911.89
-1504.75
-7536.22
-1505.41
-7160.39
-1506.04
-6784.41
-1506.63
-6408.29
-1507.2
-6032.04
-1507.73
-5655.67
-1508.24
-5279.18
-1508.71
-4902.57
-1509.15
-4525.87
-1509.57
-4149.07
-1509.95
-3772.18
-1510.31
-3395.2
-1510.64
-3018.16
-1510.94
-2641.05
-1511.21
-2263.87
-1511.45
-1886.65
-1511.66
-1509.37
-1511.84
-1132.07
-1511.99
-754.729
-1512.11
-377.371
-1512.19
-1512.23
-989.807
5215.46
-1958.43
5080.97
-2888.44
4827.7
-3768.59
4503.51
-4594.87
4161.26
-5369.79
3845.34
-6100.45
3584.12
-6796.19
3388.57
-7466.52
3255.94
-8119.75
3175.29
-8762.39
3132.8
-9399.01
3115.39
-10032.6
3112.62
-10664.8
3117.05
-11296.5
3123.97
-11928
3130.67
-12559.4
3135.79
-13190.4
3138.76
-13820.9
3139.46
-14450.5
3137.99
-15078.9
3134.52
-15706
3129.25
-16331.4
3122.35
-16954.9
3114
-17576.3
3104.33
-18195.3
3093.46
-18811.9
3081.49
-19425.7
3068.5
-20036.7
3054.57
-20644.6
3039.75
-21249.4
3024.1
-21850.8
3007.67
-22448.7
2990.49
-23043
2972.61
-23633.6
2954.05
-24220.3
2934.84
-24803
2915.01
-25381.6
2894.58
-25955.9
2873.57
-26526
2852.01
-27091.6
2829.91
-27652.7
2807.28
-28209.1
2784.15
-28760.8
2760.52
-29307.7
2736.42
-29849.6
2711.86
-30386.6
2686.85
-30918.4
2661.4
-31445.1
2635.53
-31966.5
2609.24
-32482.5
2582.56
-32993.2
2555.49
-33498.3
2528.04
-33997.9
2500.23
-34491.8
2472.06
-34980.1
2443.54
-35462.6
2414.7
-35939.2
2385.53
-36409.9
2356.05
-36874.7
2326.27
-37333.5
2296.2
-37786.2
2265.84
-38232.7
2235.22
-38673.1
2204.34
-39107.3
2173.2
-39535.2
2141.83
-39956.7
2110.22
-40371.9
2078.4
-40780.7
2046.36
-41183.1
2014.13
-41579
1981.7
-41968.3
1949.09
-42351.1
1916.31
-42727.3
1883.37
-43096.9
1850.28
-43459.8
1817.04
-43816.1
1783.67
-44165.7
1750.17
-44508.6
1716.57
-44844.7
1682.85
-45174
1649.04
-45496.6
1615.14
-45812.4
1581.16
-46121.4
1547.12
-46423.5
1513.01
-46718.9
1478.85
-47007.4
1444.65
-47289
1410.42
-47563.8
1376.15
-47831.8
1341.87
-48092.9
1307.59
-48347.1
1273.3
-48594.5
1239.01
-48835.1
1204.74
-49068.8
1170.5
-49295.7
1136.29
-49515.7
1102.11
-49728.9
1067.98
-49935.3
1033.9
-50134.9
999.889
-50327.7
965.942
-50513.8
932.071
-50693.1
898.281
-50865.6
864.58
-51031.5
830.976
-51190.6
797.474
-51343.1
764.08
-51488.9
730.803
-51628.2
697.646
-51760.8
664.618
-51886.8
631.723
-52006.3
598.967
-52119.3
566.357
-52225.7
533.897
-52325.8
501.594
-52419.4
469.452
-52506.6
437.477
-52587.5
405.674
-52662
374.047
-52730.3
342.602
-52792.3
311.343
-52848.1
280.274
-52897.8
249.4
-52941.3
218.725
-52978.7
188.254
-53010.1
157.989
-53035.5
127.935
-53054.9
98.0962
-53068.5
68.4753
-53076.1
39.0758
-53077.9
9.90114
-53073.9
-19.0456
-53064.2
-47.7614
-53048.8
-76.2435
-53027.8
-104.489
-53001.2
-132.495
-52969
-160.26
-52931.3
-187.781
-52888.2
-215.055
-52839.7
-242.081
-52785.8
-268.857
-52726.7
-295.381
-52662.2
-321.651
-52592.6
-347.665
-52517.9
-373.422
-52438.1
-398.921
-52353.2
-424.159
-52263.3
-449.138
-52168.5
-473.854
-52068.9
-498.307
-51964.4
-522.496
-51855.1
-546.422
-51741.1
-570.082
-51622.4
-593.476
-51499.1
-616.604
-51371.2
-639.467
-51238.9
-662.062
-51102
-684.391
-50960.8
-706.453
-50815.2
-728.249
-50665.3
-749.777
-50511.2
-771.04
-50352.9
-792.037
-50190.5
-812.768
-50023.9
-833.233
-49853.4
-853.435
-49678.8
-873.372
-49500.3
-893.046
-49318
-912.458
-49131.8
-931.608
-48941.9
-950.498
-48748.2
-969.128
-48550.9
-987.499
-48350
-1005.61
-48145.5
-1023.47
-47937.5
-1041.07
-47726
-1058.42
-47511.1
-1075.52
-47292.9
-1092.36
-47071.3
-1108.96
-46846.5
-1125.31
-46618.5
-1141.41
-46387.3
-1157.27
-46153
-1172.88
-45915.6
-1188.25
-45675.2
-1203.38
-45431.8
-1218.28
-45185.6
-1232.94
-44936.4
-1247.36
-44684.4
-1261.55
-44429.6
-1275.51
-44172.1
-1289.25
-43911.9
-1302.75
-43649.1
-1316.04
-43383.6
-1329.1
-43115.6
-1341.93
-42845
-1354.56
-42572
-1366.96
-42296.6
-1379.15
-42018.8
-1391.13
-41738.6
-1402.9
-41456.1
-1414.46
-41171.4
-1425.82
-40884.4
-1436.97
-40595.2
-1447.92
-40303.9
-1458.67
-40010.5
-1469.23
-39715.1
-1479.59
-39417.6
-1489.76
-39118.1
-1499.75
-38816.7
-1509.54
-38513.3
-1519.15
-38208.1
-1528.57
-37901
-1537.82
-37592.2
-1546.89
-37281.5
-1555.78
-36969.1
-1564.49
-36655.1
-1573.04
-36339.3
-1581.42
-36021.9
-1589.63
-35702.9
-1597.67
-35382.4
-1605.56
-35060.3
-1613.28
-34736.7
-1620.84
-34411.6
-1628.25
-34085.1
-1635.51
-33757.1
-1642.62
-33427.8
-1649.57
-33097.1
-1656.38
-32765.1
-1663.05
-32431.8
-1669.57
-32097.2
-1675.95
-31761.4
-1682.19
-31424.4
-1688.3
-31086.1
-1694.28
-30746.7
-1700.12
-30406.2
-1705.83
-30064.6
-1711.42
-29721.9
-1716.88
-29378.1
-1722.22
-29033.2
-1727.43
-28687.4
-1732.53
-28340.6
-1737.51
-27992.8
-1742.37
-27644.1
-1747.12
-27294.4
-1751.76
-26943.8
-1756.29
-26592.4
-1760.71
-26240.1
-1765.02
-25886.9
-1769.23
-25533
-1773.34
-25178.2
-1777.35
-24822.7
-1781.25
-24466.4
-1785.07
-24109.4
-1788.78
-23751.7
-1792.41
-23393.2
-1795.94
-23034.1
-1799.38
-22674.3
-1802.73
-22313.8
-1806
-21952.8
-1809.18
-21591.1
-1812.27
-21228.8
-1815.29
-20865.9
-1818.22
-20502.5
-1821.07
-20138.5
-1823.85
-19773.9
-1826.55
-19408.9
-1829.17
-19043.3
-1831.73
-18677.3
-1834.21
-18310.8
-1836.61
-17943.8
-1838.95
-17576.3
-1841.22
-17208.4
-1843.43
-16840.1
-1845.57
-16471.4
-1847.64
-16102.3
-1849.65
-15732.8
-1851.6
-15362.9
-1853.48
-14992.7
-1855.31
-14622.1
-1857.08
-14251.2
-1858.79
-13879.9
-1860.44
-13508.4
-1862.04
-13136.5
-1863.59
-12764.3
-1865.08
-12391.8
-1866.51
-12019.1
-1867.9
-11646.1
-1869.23
-11272.9
-1870.51
-10899.4
-1871.75
-10525.6
-1872.93
-10151.7
-1874.07
-9777.49
-1875.16
-9403.11
-1876.21
-9028.53
-1877.21
-8653.76
-1878.17
-8278.8
-1879.08
-7903.68
-1879.95
-7528.4
-1880.77
-7152.95
-1881.56
-6777.36
-1882.3
-6401.63
-1883.01
-6025.77
-1883.67
-5649.79
-1884.3
-5273.69
-1884.89
-4897.47
-1885.45
-4521.16
-1885.96
-4144.75
-1886.44
-3768.25
-1886.89
-3391.67
-1887.3
-3015.02
-1887.67
-2638.3
-1888.01
-2261.51
-1888.31
-1884.68
-1888.58
-1507.8
-1888.8
-1130.89
-1888.99
-753.941
-1889.14
-376.976
-1889.24
-1889.29
-962.306
6177.45
-1906.38
6024.73
-2817.52
5738.54
-3685.97
5371.66
-4507.7
4982.71
-5284.15
4621.51
-6020.71
4320.41
-6724.94
4092.53
-7404.81
3935.54
-8067.51
3837.73
-8718.85
3783.88
-9363.09
3759.37
-10003.1
3752.35
-10640.6
3754.32
-11276.7
3759.77
-11911.7
3765.47
-12545.9
3769.73
-13179.3
3771.81
-13811.5
3771.48
-14442.6
3768.8
-15072.3
3763.91
-15700.3
3757
-16326.5
3748.27
-16950.6
3737.87
-17572.5
3725.95
-18191.9
3712.66
-18808.8
3698.08
-19422.9
3682.32
-20034
3665.45
-20642.1
3647.54
-21246.9
3628.66
-21848.3
3608.85
-22446.3
3588.16
-23040.5
3566.63
-23631.1
3544.3
-24217.7
3521.19
-24800.3
3497.35
-25378.8
3472.8
-25953
3447.55
-26522.9
3421.64
-27088.4
3395.09
-27649.3
3367.91
-28205.5
3340.13
-28757.1
3311.76
-29303.7
3282.83
-29845.5
3253.33
-30382.2
3223.3
-30913.8
3192.75
-31440.3
3161.69
-31961.4
3130.14
-32477.3
3098.11
-32987.7
3065.61
-33492.6
3032.67
-33991.9
2999.28
-34485.6
2965.47
-34973.5
2931.25
-35455.7
2896.63
-35932.1
2861.62
-36402.6
2826.24
-36867.1
2790.5
-37325.6
2754.41
-37778
2717.98
-38224.2
2681.23
-38664.3
2644.17
-39098.2
2606.8
-39525.8
2569.15
-39947.1
2531.22
-40362
2493.03
-40770.5
2454.59
-41172.5
2415.91
-41568.1
2376.99
-41957.1
2337.86
-42339.6
2298.53
-42715.5
2259
-43084.8
2219.29
-43447.4
2179.4
-43803.4
2139.36
-44152.6
2099.17
-44495.2
2058.84
-44830.9
2018.38
-45160
1977.81
-45482.2
1937.14
-45797.7
1896.37
-46106.4