/*--------------------------------*- C++ -*----------------------------------*\
| =========                 |                                                 |
| \\      /  F ield         | OpenFOAM: The Open Source CFD Toolbox           |
|  \\    /   O peration     | Version:  2212                                  |
|   \\  /    A nd           | Website:  www.openfoam.com                      |
|    \\/     M anipulation  |                                                 |
\*---------------------------------------------------------------------------*/
FoamFile
{
    version     2.0;
    format      ascii;
    arch        "LSB;label=32;scalar=64";
    class       volScalarField;
    location    "120";
    object      p_rgh_0;
}
// * * * * * * * * * * * * * * * * * * * * * * * * * * * * * * * * * * * * * //

dimensions      [1 -1 -2 0 0 0 0];

internalField   nonuniform List<scalar> 
204800
(
-11.6283
-11.6222
-11.6105
-11.5927
-11.5691
-11.5395
-11.5041
-11.4629
-11.4158
-11.3628
-11.3041
-11.2397
-11.1696
-11.0939
-11.0126
-10.9258
-10.8336
-10.736
-10.633
-10.5248
-10.4114
-10.2928
-10.1692
-10.0406
-9.90703
-9.7686
-9.62536
-9.47739
-9.32474
-9.16749
-9.00569
-8.83942
-8.66873
-8.49369
-8.31435
-8.13079
-7.94306
-7.75123
-7.55537
-7.35553
-7.15178
-6.9442
-6.73284
-6.51779
-6.2991
-6.07686
-5.85114
-5.622
-5.38954
-5.15382
-4.91493
-4.67294
-4.42795
-4.18002
-3.92926
-3.67573
-3.41953
-3.16075
-2.89948
-2.6358
-2.3698
-2.10158
-1.83122
-1.55883
-1.28448
-1.00827
-0.730298
-0.45065
-0.169421
0.113299
0.397417
0.682843
0.969486
1.25726
1.54606
1.83582
2.12643
2.41782
2.7099
3.00258
3.29578
3.58941
3.88339
4.17765
4.4721
4.76666
5.06126
5.35582
5.65027
5.94454
6.23855
6.53224
6.82554
7.11838
7.4107
7.70244
7.99353
8.28391
8.57354
8.86235
9.15029
9.4373
9.72334
10.0084
10.2923
10.5751
10.8568
11.1373
11.4165
11.6944
11.9711
12.2463
12.5202
12.7926
13.0636
13.3331
13.6011
13.8676
14.1324
14.3957
14.6574
14.9174
15.1758
15.4325
15.6875
15.9408
16.1923
16.4421
16.6902
16.9365
17.181
17.4237
17.6646
17.9037
18.141
18.3764
18.6101
18.8419
19.0718
19.3
19.5262
19.7507
19.9732
20.194
20.4128
20.6298
20.845
21.0583
21.2698
21.4795
21.6873
21.8932
22.0974
22.2997
22.5001
22.6988
22.8956
23.0907
23.2839
23.4754
23.665
23.8529
24.039
24.2233
24.4059
24.5867
24.7658
24.9432
25.1188
25.2927
25.4649
25.6354
25.8043
25.9714
26.1369
26.3007
26.4629
26.6234
26.7823
26.9396
27.0952
27.2493
27.4018
27.5527
27.702
27.8498
27.996
28.1406
28.2838
28.4254
28.5655
28.7041
28.8413
28.9769
29.1111
29.2438
29.3751
29.5049
29.6333
29.7602
29.8858
30.01
30.1327
30.2541
30.3741
30.4928
30.6101
30.726
30.8406
30.9539
31.0658
31.1765
31.2858
31.3939
31.5007
31.6062
31.7104
31.8134
31.9151
32.0156
32.1148
32.2128
32.3096
32.4052
32.4996
32.5928
32.6848
32.7756
32.8652
32.9537
33.041
33.1272
33.2122
33.296
33.3788
33.4604
33.5409
33.6202
33.6985
33.7757
33.8517
33.9267
34.0006
34.0734
34.1451
34.2158
34.2854
34.3539
34.4214
34.4879
34.5533
34.6176
34.681
34.7433
34.8045
34.8648
34.924
34.9823
35.0395
35.0957
35.151
35.2052
35.2584
35.3107
35.362
35.4123
35.4616
35.5099
35.5573
35.6037
35.6492
35.6937
35.7372
35.7798
35.8215
35.8622
35.9019
35.9407
35.9786
36.0155
36.0515
36.0866
36.1208
36.154
36.1863
36.2176
36.2481
36.2776
36.3062
36.334
36.3607
36.3866
36.4116
36.4357
36.4589
36.4811
36.5025
36.5229
36.5425
36.5612
36.5789
36.5958
36.6118
36.6269
36.6411
36.6544
36.6668
36.6783
36.6889
36.6987
36.7075
36.7155
36.7226
36.7288
36.7341
36.7385
36.7421
36.7447
36.7465
36.7474
-11.5732
-11.5674
-11.556
-11.5387
-11.5158
-11.4871
-11.4527
-11.4126
-11.3669
-11.3154
-11.2584
-11.1957
-11.1274
-11.0536
-10.9742
-10.8894
-10.7991
-10.7034
-10.6024
-10.496
-10.3844
-10.2675
-10.1455
-10.0184
-9.8863
-9.74919
-9.60716
-9.46029
-9.30864
-9.15229
-8.9913
-8.82575
-8.6557
-8.48123
-8.30241
-8.11931
-7.93201
-7.74057
-7.54507
-7.34558
-7.14217
-6.93491
-6.72387
-6.50913
-6.29077
-6.06885
-5.84345
-5.61464
-5.38252
-5.14714
-4.9086
-4.66697
-4.42234
-4.17478
-3.92439
-3.67125
-3.41545
-3.15707
-2.8962
-2.63293
-2.36735
-2.09955
-1.82962
-1.55766
-1.28375
-1.00799
-0.730466
-0.451274
-0.170504
0.111751
0.395401
0.680354
0.96652
1.25381
1.54213
1.8314
2.12152
2.41242
2.704
2.99618
3.28887
3.58199
3.87547
4.16922
4.46315
4.7572
5.05129
5.34533
5.63926
5.93301
6.2265
6.51967
6.81244
7.10476
7.39655
7.68776
7.97833
8.26819
8.55729
8.84558
9.13299
9.41948
9.70499
9.98949
10.2729
10.5552
10.8364
11.1163
11.395
11.6724
11.9485
12.2233
12.4966
12.7686
13.0391
13.3081
13.5755
13.8415
14.1058
14.3686
14.6298
14.8893
15.1472
15.4034
15.6579
15.9107
16.1618
16.4111
16.6587
16.9045
17.1485
17.3908
17.6312
17.8699
18.1067
18.3417
18.5749
18.8062
19.0357
19.2634
19.4892
19.7132
19.9353
20.1556
20.3741
20.5906
20.8054
21.0183
21.2294
21.4386
21.646
21.8515
22.0552
22.2571
22.4572
22.6555
22.8519
23.0466
23.2394
23.4305
23.6198
23.8073
23.993
24.177
24.3592
24.5396
24.7184
24.8954
25.0706
25.2442
25.4161
25.5862
25.7547
25.9215
26.0867
26.2501
26.412
26.5722
26.7308
26.8877
27.0431
27.1968
27.349
27.4996
27.6486
27.7961
27.942
28.0864
28.2292
28.3705
28.5104
28.6487
28.7855
28.9209
29.0548
29.1872
29.3182
29.4478
29.5759
29.7026
29.8279
29.9518
30.0744
30.1955
30.3153
30.4337
30.5507
30.6664
30.7808
30.8938
31.0056
31.116
31.2251
31.333
31.4395
31.5448
31.6488
31.7516
31.8531
31.9534
32.0524
32.1502
32.2468
32.3422
32.4364
32.5294
32.6212
32.7118
32.8013
32.8896
32.9767
33.0627
33.1475
33.2312
33.3138
33.3952
33.4755
33.5547
33.6328
33.7098
33.7857
33.8606
33.9343
34.007
34.0785
34.1491
34.2185
34.2869
34.3543
34.4206
34.4858
34.5501
34.6133
34.6755
34.7366
34.7967
34.8559
34.914
34.9711
35.0272
35.0823
35.1364
35.1896
35.2417
35.2929
35.3431
35.3923
35.4406
35.4878
35.5342
35.5795
35.6239
35.6674
35.7099
35.7515
35.7921
35.8317
35.8705
35.9083
35.9451
35.981
36.016
36.0501
36.0833
36.1155
36.1468
36.1772
36.2067
36.2352
36.2629
36.2896
36.3155
36.3404
36.3644
36.3875
36.4097
36.4311
36.4515
36.471
36.4896
36.5074
36.5242
36.5401
36.5552
36.5694
36.5826
36.595
36.6065
36.6171
36.6269
36.6357
36.6436
36.6507
36.6569
36.6622
36.6666
36.6701
36.6728
36.6746
36.6754
-11.5757
-11.5699
-11.5585
-11.5413
-11.5185
-11.4899
-11.4557
-11.4158
-11.3702
-11.319
-11.2622
-11.1998
-11.1318
-11.0582
-10.9791
-10.8946
-10.8046
-10.7092
-10.6084
-10.5023
-10.391
-10.2744
-10.1526
-10.0257
-9.89376
-9.75681
-9.61491
-9.46814
-9.31656
-9.16025
-8.99927
-8.83369
-8.6636
-8.48906
-8.31015
-8.12694
-7.93951
-7.74792
-7.55226
-7.3526
-7.14902
-6.94158
-6.73036
-6.51544
-6.29689
-6.07479
-5.84921
-5.62023
-5.38793
-5.15239
-4.91368
-4.67189
-4.4271
-4.1794
-3.92886
-3.67558
-3.41963
-3.16112
-2.90011
-2.63672
-2.37102
-2.1031
-1.83306
-1.56099
-1.28697
-1.01111
-0.733487
-0.4542
-0.17334
0.109002
0.392734
0.677765
0.964006
1.25137
1.53975
1.82909
2.11927
2.41022
2.70185
2.99408
3.28682
3.57998
3.8735
4.16728
4.46124
4.75532
5.04943
5.34349
5.63744
5.9312
6.2247
6.51788
6.81066
7.10297
7.39477
7.68597
7.97653
8.26638
8.55546
8.84373
9.13112
9.41759
9.70308
9.98755
10.2709
10.5532
10.8343
11.1142
11.3929
11.6703
11.9463
12.221
12.4944
12.7662
13.0367
13.3056
13.573
13.8389
14.1032
14.366
14.6271
14.8865
15.1444
15.4005
15.6549
15.9077
16.1587
16.4079
16.6554
16.9012
17.1451
17.3873
17.6277
17.8662
18.103
18.3379
18.571
18.8023
19.0317
19.2593
19.485
19.7089
19.931
20.1512
20.3696
20.5861
20.8008
21.0136
21.2246
21.4337
21.641
21.8465
22.0501
22.2519
22.4519
22.6501
22.8465
23.041
23.2338
23.4248
23.614
23.8014
23.987
24.1709
24.3531
24.5335
24.7121
24.889
25.0642
25.2377
25.4095
25.5796
25.748
25.9147
26.0798
26.2432
26.405
26.5651
26.7236
26.8805
27.0357
27.1894
27.3415
27.492
27.641
27.7884
27.9342
28.0785
28.2213
28.3626
28.5023
28.6406
28.7774
28.9127
29.0465
29.1789
29.3098
29.4393
29.5674
29.694
29.8192
29.9431
30.0655
30.1866
30.3063
30.4247
30.5416
30.6573
30.7716
30.8846
30.9963
31.1066
31.2157
31.3235
31.43
31.5352
31.6392
31.7419
31.8433
31.9436
32.0425
32.1403
32.2369
32.3322
32.4263
32.5193
32.611
32.7016
32.791
32.8793
32.9663
33.0523
33.1371
33.2207
33.3032
33.3846
33.4649
33.5441
33.6221
33.6991
33.775
33.8497
33.9234
33.9961
34.0676
34.1381
34.2075
34.2759
34.3432
34.4095
34.4747
34.5389
34.6021
34.6642
34.7253
34.7854
34.8445
34.9026
34.9597
35.0158
35.0708
35.1249
35.178
35.2302
35.2813
35.3315
35.3807
35.4289
35.4762
35.5225
35.5678
35.6122
35.6556
35.6981
35.7396
35.7802
35.8198
35.8586
35.8963
35.9332
35.9691
36.0041
36.0381
36.0712
36.1035
36.1348
36.1651
36.1946
36.2231
36.2508
36.2775
36.3033
36.3282
36.3522
36.3753
36.3975
36.4189
36.4393
36.4588
36.4774
36.4951
36.5119
36.5279
36.5429
36.5571
36.5703
36.5827
36.5942
36.6048
36.6145
36.6234
36.6313
36.6384
36.6446
36.6499
36.6543
36.6578
36.6605
36.6622
36.6631
-11.5398
-11.5342
-11.5231
-11.5063
-11.484
-11.4562
-11.4228
-11.3838
-11.3394
-11.2893
-11.2338
-11.1728
-11.1062
-11.0342
-10.9567
-10.8738
-10.7854
-10.6917
-10.5925
-10.488
-10.3782
-10.2631
-10.1428
-10.0173
-9.88664
-9.75089
-9.6101
-9.46435
-9.31369
-9.15819
-8.99793
-8.83298
-8.66342
-8.48934
-8.3108
-8.12789
-7.94069
-7.7493
-7.55378
-7.35422
-7.15071
-6.94332
-6.73213
-6.51723
-6.2987
-6.07661
-5.85104
-5.62207
-5.38979
-5.15427
-4.9156
-4.67385
-4.42911
-4.18146
-3.93099
-3.67778
-3.42192
-3.1635
-2.9026
-2.63932
-2.37374
-2.10595
-1.83604
-1.56411
-1.29025
-1.01455
-0.737096
-0.457985
-0.177309
0.104842
0.388376
0.673202
0.95923
1.24637
1.53453
1.82363
2.11358
2.40428
2.69566
2.98763
3.28011
3.573
3.86624
4.15974
4.45342
4.7472
5.04102
5.33478
5.62842
5.92187
6.21506
6.50791
6.80036
7.09235
7.38381
7.67468
7.9649
8.2544
8.54314
8.83106
9.1181
9.40421
9.68934
9.97345
10.2565
10.5384
10.8191
11.0987
11.377
11.654
11.9297
12.204
12.4769
12.7484
13.0185
13.287
13.5541
13.8196
14.0835
14.3458
14.6066
14.8656
15.1231
15.3788
15.6329
15.8852
16.1358
16.3847
16.6318
16.8772
17.1208
17.3625
17.6025
17.8407
18.0771
18.3116
18.5444
18.7752
19.0043
19.2315
19.4569
19.6804
19.9021
20.1219
20.3399
20.5561
20.7704
20.9829
21.1935
21.4023
21.6092
21.8143
22.0176
22.2191
22.4187
22.6166
22.8126
23.0068
23.1992
23.3899
23.5787
23.7658
23.9511
24.1347
24.3165
24.4966
24.6749
24.8515
25.0264
25.1995
25.371
25.5408
25.7089
25.8753
26.0401
26.2032
26.3647
26.5245
26.6827
26.8393
26.9943
27.1477
27.2995
27.4497
27.5984
27.7455
27.8911
28.0351
28.1776
28.3186
28.4581
28.5961
28.7327
28.8677
29.0013
29.1334
29.2641
29.3933
29.5212
29.6476
29.7726
29.8962
30.0184
30.1393
30.2587
30.3768
30.4936
30.609
30.7231
30.8359
30.9474
31.0575
31.1664
31.274
31.3803
31.4853
31.5891
31.6916
31.7928
31.8929
31.9917
32.0892
32.1856
32.2808
32.3747
32.4675
32.5591
32.6495
32.7387
32.8268
32.9137
32.9995
33.0841
33.1676
33.2499
33.3312
33.4113
33.4903
33.5682
33.645
33.7208
33.7954
33.869
33.9414
34.0128
34.0832
34.1525
34.2207
34.2879
34.354
34.4192
34.4832
34.5463
34.6083
34.6693
34.7293
34.7883
34.8462
34.9032
34.9592
35.0142
35.0681
35.1212
35.1732
35.2242
35.2743
35.3234
35.3715
35.4187
35.4649
35.5102
35.5545
35.5978
35.6402
35.6817
35.7222
35.7617
35.8004
35.8381
35.8748
35.9107
35.9456
35.9796
36.0127
36.0448
36.076
36.1064
36.1358
36.1642
36.1918
36.2185
36.2443
36.2691
36.2931
36.3162
36.3383
36.3596
36.38
36.3994
36.418
36.4357
36.4525
36.4684
36.4834
36.4976
36.5108
36.5232
36.5346
36.5452
36.5549
36.5637
36.5717
36.5787
36.5849
36.5902
36.5946
36.5981
36.6007
36.6025
36.6034
-11.5396
-11.5341
-11.5231
-11.5065
-11.4844
-11.4568
-11.4236
-11.385
-11.3409
-11.2913
-11.2362
-11.1756
-11.1096
-11.0382
-10.9613
-10.8789
-10.7912
-10.6981
-10.5996
-10.4958
-10.3867
-10.2723
-10.1527
-10.0278
-9.89779
-9.76265
-9.62243
-9.4772
-9.32701
-9.17193
-9.01202
-8.84735
-8.67801
-8.50407
-8.32562
-8.14272
-7.95549
-7.76399
-7.56831
-7.36856
-7.1648
-6.95714
-6.74566
-6.53044
-6.31156
-6.08913
-5.8632
-5.63388
-5.40124
-5.16536
-4.92634
-4.68424
-4.43916
-4.19118
-3.94038
-3.68685
-3.43068
-3.17196
-2.91076
-2.64719
-2.38133
-2.11327
-1.8431
-1.57091
-1.2968
-1.02086
-0.74317
-0.463833
-0.182938
0.0994235
0.383161
0.668183
0.954399
1.24172
1.53006
1.81932
2.10943
2.40028
2.69181
2.98391
3.27651
3.56953
3.86289
4.15649
4.45028
4.74415
5.03805
5.3319
5.62561
5.91913
6.21238
6.50528
6.79779
7.08982
7.38131
7.67221
7.96245
8.25197
8.54072
8.82865
9.11569
9.40179
9.68692
9.97101
10.254
10.5359
10.8166
11.0961
11.3744
11.6513
11.927
12.2012
12.4741
12.7456
13.0155
13.284
13.551
13.8164
14.0803
14.3425
14.6032
14.8622
15.1195
15.3752
15.6291
15.8814
16.1319
16.3806
16.6277
16.8729
17.1164
17.358
17.5979
17.836
18.0722
18.3067
18.5393
18.77
18.999
19.226
19.4513
19.6747
19.8963
20.116
20.3338
20.5498
20.764
20.9763
21.1868
21.3955
21.6023
21.8073
22.0104
22.2118
22.4113
22.609
22.8049
22.999
23.1912
23.3818
23.5705
23.7574
23.9426
24.126
24.3077
24.4876
24.6658
24.8423
25.017
25.1901
25.3614
25.5311
25.699
25.8653
26.03
26.1929
26.3543
26.514
26.6721
26.8285
26.9834
27.1367
27.2883
27.4385
27.587
27.734
27.8794
28.0234
28.1658
28.3066
28.446
28.5839
28.7203
28.8552
28.9887
29.1207
29.2513
29.3804
29.5081
29.6344
29.7593
29.8828
30.0049
30.1257
30.245
30.363
30.4797
30.595
30.709
30.8217
30.9331
31.0431
31.1519
31.2594
31.3656
31.4705
31.5742
31.6766
31.7778
31.8777
31.9764
32.0739
32.1702
32.2652
32.3591
32.4518
32.5433
32.6336
32.7228
32.8108
32.8976
32.9833
33.0678
33.1512
33.2335
33.3147
33.3947
33.4737
33.5515
33.6283
33.7039
33.7785
33.852
33.9244
33.9957
34.066
34.1352
34.2034
34.2705
34.3366
34.4016
34.4657
34.5286
34.5906
34.6516
34.7115
34.7704
34.8283
34.8852
34.9412
34.9961
35.05
35.103
35.155
35.206
35.256
35.305
35.3531
35.4003
35.4464
35.4916
35.5359
35.5792
35.6215
35.663
35.7034
35.743
35.7816
35.8192
35.856
35.8918
35.9267
35.9606
35.9937
36.0258
36.057
36.0873
36.1166
36.1451
36.1727
36.1993
36.2251
36.2499
36.2738
36.2969
36.319
36.3403
36.3606
36.3801
36.3986
36.4163
36.4331
36.449
36.464
36.4781
36.4913
36.5037
36.5151
36.5257
36.5354
36.5442
36.5521
36.5592
36.5653
36.5706
36.575
36.5785
36.5812
36.5829
36.5838
-11.5119
-11.5065
-11.4957
-11.4794
-11.4578
-11.4308
-11.3984
-11.3606
-11.3174
-11.2689
-11.2149
-11.1556
-11.0909
-11.0208
-10.9454
-10.8645
-10.7784
-10.6868
-10.5899
-10.4877
-10.3802
-10.2674
-10.1494
-10.026
-9.89752
-9.76381
-9.62496
-9.48102
-9.33204
-9.17806
-9.01916
-8.85541
-8.68686
-8.51361
-8.33573
-8.15331
-7.96644
-7.77521
-7.57971
-7.38005
-7.17633
-6.96862
-6.75704
-6.54168
-6.32264
-6.09999
-5.87385
-5.64429
-5.4114
-5.17528
-4.93601
-4.69367
-4.44836
-4.20015
-3.94913
-3.6954
-3.43903
-3.18012
-2.91875
-2.65502
-2.389
-2.1208
-1.8505
-1.5782
-1.30398
-1.02793
-0.75016
-0.470747
-0.189786
0.0926315
0.376414
0.661471
0.947712
1.23505
1.52339
1.81265
2.10274
2.39357
2.68506
2.97712
3.26967
3.56263
3.85591
4.14944
4.44313
4.73691
5.03071
5.32444
5.61803
5.91141
6.20452
6.49728
6.78963
7.0815
7.37283
7.66355
7.95361
8.24294
8.5315
8.81922
9.10605
9.39194
9.67684
9.9607
10.2435
10.5251
10.8056
11.0849
11.3629
11.6396
11.9149
12.1889
12.4615
12.7327
13.0024
13.2706
13.5373
13.8024
14.066
14.328
14.5883
14.847
15.104
15.3594
15.613
15.865
16.1152
16.3636
16.6103
16.8553
17.0984
17.3398
17.5793
17.8171
18.053
18.2871
18.5194
18.7498
18.9784
19.2052
19.4301
19.6532
19.8744
20.0938
20.3114
20.5271
20.7409
20.9529
21.1631
21.3714
21.5779
21.7826
21.9854
22.1864
22.3856
22.583
22.7786
22.9724
23.1643
23.3545
23.5429
23.7296
23.9145
24.0976
24.279
24.4586
24.6365
24.8126
24.9871
25.1598
25.3309
25.5002
25.6679
25.8339
25.9983
26.161
26.322
26.4815
26.6393
26.7955
26.9501
27.1031
27.2545
27.4043
27.5526
27.6993
27.8445
27.9882
28.1303
28.271
28.4101
28.5477
28.6839
28.8186
28.9518
29.0836
29.2139
29.3428
29.4703
29.5963
29.721
29.8443
29.9662
30.0867
30.2058
30.3236
30.4401
30.5552
30.669
30.7814
30.8926
31.0024
31.111
31.2183
31.3243
31.429
31.5325
31.6347
31.7357
31.8355
31.934
32.0313
32.1274
32.2223
32.316
32.4085
32.4998
32.59
32.6789
32.7668
32.8534
32.939
33.0234
33.1066
33.1887
33.2698
33.3497
33.4285
33.5061
33.5827
33.6582
33.7327
33.806
33.8783
33.9495
34.0197
34.0888
34.1568
34.2238
34.2898
34.3547
34.4186
34.4814
34.5433
34.6041
34.6639
34.7227
34.7806
34.8374
34.8932
34.948
35.0018
35.0547
35.1066
35.1575
35.2074
35.2564
35.3044
35.3514
35.3975
35.4426
35.4868
35.53
35.5723
35.6136
35.654
35.6935
35.732
35.7696
35.8063
35.842
35.8768
35.9107
35.9437
35.9758
36.0069
36.0371
36.0665
36.0949
36.1224
36.149
36.1747
36.1995
36.2234
36.2464
36.2685
36.2897
36.31
36.3294
36.3479
36.3656
36.3823
36.3982
36.4132
36.4272
36.4404
36.4528
36.4642
36.4748
36.4844
36.4932
36.5011
36.5082
36.5143
36.5196
36.524
36.5275
36.5301
36.5319
36.5328
-11.5058
-11.5005
-11.4898
-11.4738
-11.4524
-11.4257
-11.3936
-11.3562
-11.3135
-11.2655
-11.2121
-11.1535
-11.0894
-11.0201
-10.9455
-10.8655
-10.7802
-10.6896
-10.5938
-10.4926
-10.3862
-10.2745
-10.1575
-10.0353
-9.9079
-9.77531
-9.63756
-9.49468
-9.34672
-9.19372
-9.03573
-8.8728
-8.70501
-8.53241
-8.35508
-8.17312
-7.98659
-7.7956
-7.60025
-7.40063
-7.19684
-6.98899
-6.77719
-6.56153
-6.34213
-6.11909
-5.8925
-5.66247
-5.42909
-5.19245
-4.95266
-4.7098
-4.46396
-4.21523
-3.9637
-3.70946
-3.45259
-3.19319
-2.93134
-2.66714
-2.40066
-2.13202
-1.86128
-1.58855
-1.31392
-1.03748
-0.759311
-0.479518
-0.198189
0.0845852
0.368714
0.654106
0.940671
1.22832
1.51696
1.80651
2.09688
2.38798
2.67973
2.97204
3.26483
3.55801
3.85151
4.14524
4.43913
4.73309
5.02706
5.32095
5.6147
5.90823
6.20147
6.49435
6.78681
7.07879
7.37021
7.66102
7.95115
8.24056
8.52917
8.81694
9.10382
9.38974
9.67467
9.95855
10.2413
10.523
10.8035
11.0827
11.3607
11.6374
11.9127
12.1867
12.4592
12.7303
13
13.2681
13.5347
13.7998
14.0633
14.3252
14.5854
14.844
15.1009
15.3562
15.6097
15.8616
16.1116
16.36
16.6066
16.8514
17.0944
17.3356
17.575
17.8126
18.0484
18.2824
18.5145
18.7448
18.9732
19.1999
19.4246
19.6475
19.8686
20.0878
20.3052
20.5207
20.7344
20.9463
21.1563
21.3644
21.5707
21.7752
21.9779
22.1787
22.3778
22.575
22.7704
22.964
23.1558
23.3458
23.534
23.7205
23.9052
24.0881
24.2693
24.4488
24.6265
24.8025
24.9768
25.1493
25.3202
25.4894
25.6569
25.8228
25.9869
26.1495
26.3103
26.4696
26.6272
26.7833
26.9377
27.0905
27.2418
27.3914
27.5396
27.6861
27.8312
27.9747
28.1166
28.2571
28.3961
28.5336
28.6696
28.8041
28.9372
29.0688
29.199
29.3277
29.455
29.581
29.7055
29.8286
29.9503
30.0707
30.1897
30.3074
30.4237
30.5387
30.6523
30.7646
30.8757
30.9854
31.0938
31.201
31.3068
31.4115
31.5148
31.6169
31.7178
31.8174
31.9158
32.013
32.109
32.2037
32.2973
32.3897
32.4809
32.571
32.6598
32.7476
32.8341
32.9196
33.0038
33.087
33.169
33.2499
33.3297
33.4084
33.486
33.5625
33.6379
33.7123
33.7855
33.8577
33.9288
33.9989
34.0679
34.1359
34.2028
34.2686
34.3335
34.3973
34.4601
34.5219
34.5826
34.6424
34.7011
34.7588
34.8156
34.8713
34.9261
34.9798
35.0326
35.0844
35.1353
35.1852
35.2341
35.282
35.329
35.375
35.4201
35.4642
35.5073
35.5496
35.5909
35.6312
35.6706
35.7091
35.7466
35.7833
35.819
35.8537
35.8876
35.9205
35.9525
35.9836
36.0138
36.0431
36.0715
36.099
36.1255
36.1512
36.176
36.1998
36.2228
36.2449
36.2661
36.2863
36.3057
36.3242
36.3419
36.3586
36.3744
36.3894
36.4035
36.4166
36.429
36.4404
36.4509
36.4606
36.4694
36.4773
36.4843
36.4904
36.4957
36.5001
36.5036
36.5062
36.508
36.5089
-11.4799
-11.4746
-11.4642
-11.4484
-11.4275
-11.4013
-11.3699
-11.3333
-11.2914
-11.2443
-11.1919
-11.1343
-11.0715
-11.0035
-10.9301
-10.8516
-10.7678
-10.6787
-10.5844
-10.4849
-10.3801
-10.27
-10.1548
-10.0343
-9.90857
-9.77767
-9.64158
-9.50034
-9.35396
-9.20249
-9.04595
-8.8844
-8.71789
-8.54647
-8.37021
-8.18919
-8.00349
-7.81319
-7.6184
-7.41921
-7.21572
-7.00806
-6.79633
-6.58064
-6.36111
-6.13786
-5.91099
-5.68062
-5.44686
-5.20982
-4.96958
-4.72627
-4.47996
-4.23076
-3.97877
-3.72407
-3.46675
-3.2069
-2.94463
-2.68
-2.41312
-2.14408
-1.87297
-1.59987
-1.32489
-1.04811
-0.769616
-0.489513
-0.207886
0.0751723
0.359571
0.64522
0.932029
1.21991
1.50877
1.79852
2.08908
2.38036
2.67227
2.96473
3.25766
3.55097
3.84458
4.13842
4.43239
4.72644
5.02047
5.31442
5.60821
5.90177
6.19503
6.48792
6.78038
7.07234
7.36374
7.65451
7.9446
8.23395
8.5225
8.81019
9.09698
9.38282
9.66764
9.95141
10.2341
10.5156
10.7959
11.075
11.3529
11.6294
11.9046
12.1784
12.4507
12.7217
12.9911
13.2591
13.5255
13.7903
14.0536
14.3152
14.5753
14.8336
15.0903
15.3453
15.5986
15.8502
16.1
16.3481
16.5944
16.839
17.0817
17.3227
17.5618
17.7992
18.0347
18.2683
18.5002
18.7302
18.9584
19.1847
19.4092
19.6318
19.8526
20.0715
20.2886
20.5038
20.7172
20.9288
21.1385
21.3463
21.5524
21.7566
21.9589
22.1595
22.3582
22.5551
22.7502
22.9435
23.135
23.3248
23.5127
23.6989
23.8833
24.0659
24.2468
24.426
24.6034
24.7791
24.9531
25.1254
25.296
25.4649
25.6321
25.7977
25.9616
26.1239
26.2845
26.4434
26.6008
26.7566
26.9107
27.0633
27.2143
27.3637
27.5116
27.6579
27.8026
27.9459
28.0876
28.2278
28.3665
28.5038
28.6395
28.7738
28.9067
29.038
29.168
29.2965
29.4236
29.5493
29.6736
29.7965
29.918
30.0381
30.1569
30.2744
30.3905
30.5052
30.6187
30.7308
30.8416
30.9511
31.0593
31.1663
31.272
31.3764
31.4795
31.5814
31.6821
31.7816
31.8798
31.9768
32.0726
32.1672
32.2606
32.3528
32.4438
32.5337
32.6224
32.71
32.7964
32.8816
32.9658
33.0487
33.1306
33.2114
33.291
33.3696
33.447
33.5234
33.5986
33.6728
33.746
33.818
33.889
33.9589
34.0278
34.0956
34.1624
34.2282
34.2929
34.3566
34.4192
34.4809
34.5415
34.6012
34.6598
34.7174
34.774
34.8297
34.8843
34.938
34.9907
35.0424
35.0931
35.1429
35.1917
35.2396
35.2865
35.3324
35.3774
35.4214
35.4645
35.5066
35.5478
35.5881
35.6274
35.6659
35.7033
35.7399
35.7755
35.8102
35.844
35.8769
35.9088
35.9399
35.97
35.9992
36.0276
36.055
36.0815
36.1071
36.1318
36.1557
36.1786
36.2006
36.2218
36.242
36.2614
36.2798
36.2974
36.3141
36.3299
36.3449
36.3589
36.3721
36.3844
36.3958
36.4063
36.4159
36.4247
36.4326
36.4396
36.4457
36.451
36.4554
36.4589
36.4615
36.4632
36.4641
-11.4668
-11.4616
-11.4513
-11.4358
-11.4151
-11.3892
-11.3582
-11.322
-11.2807
-11.2341
-11.1824
-11.1256
-11.0635
-10.9963
-10.9239
-10.8463
-10.7635
-10.6755
-10.5824
-10.484
-10.3805
-10.2718
-10.1579
-10.0388
-9.91451
-9.78506
-9.65045
-9.51068
-9.36578
-9.21576
-9.06065
-8.90049
-8.7353
-8.56514
-8.39006
-8.21012
-8.02538
-7.83594
-7.64186
-7.44326
-7.24022
-7.03287
-6.82131
-6.60566
-6.38605
-6.1626
-5.93543
-5.70467
-5.47043
-5.23285
-4.99203
-4.7481
-4.50114
-4.25128
-3.9986
-3.74322
-3.48522
-3.2247
-2.96176
-2.69648
-2.42895
-2.15928
-1.88755
-1.61385
-1.33827
-1.06091
-0.781861
-0.50121
-0.21905
0.0645262
0.349429
0.635567
0.92285
1.21119
1.50049
1.79068
2.08165
2.37333
2.66563
2.95847
3.25176
3.54541
3.83935
4.1335
4.42778
4.72211
5.01642
5.31063
5.60467
5.89846
6.19194
6.48504
6.7777
7.06984
7.36141
7.65234
7.94257
8.23206
8.52073
8.80853
9.09542
9.38134
9.66625
9.95008
10.2328
10.5144
10.7947
11.0739
11.3517
11.6282
11.9034
12.1772
12.4495
12.7204
12.9899
13.2578
13.5241
13.7889
14.0521
14.3137
14.5736
14.8319
15.0885
15.3434
15.5966
15.8481
16.0978
16.3457
16.5919
16.8363
17.0789
17.3197
17.5587
17.7959
18.0313
18.2648
18.4965
18.7263
18.9543
19.1805
19.4048
19.6272
19.8478
20.0666
20.2835
20.4985
20.7117
20.9231
21.1326
21.3402
21.5461
21.7501
21.9522
22.1526
22.3511
22.5478
22.7427
22.9358
23.1271
23.3166
23.5044
23.6903
23.8745
24.057
24.2377
24.4166
24.5939
24.7694
24.9431
25.1152
25.2856
25.4543
25.6213
25.7867
25.9504
26.1124
26.2728
26.4316
26.5888
26.7443
26.8983
27.0506
27.2014
27.3507
27.4983
27.6444
27.789
27.9321
28.0736
28.2136
28.3522
28.4892
28.6248
28.7589
28.8915
29.0227
29.1525
29.2808
29.4077
29.5332
29.6574
29.7801
29.9014
30.0214
30.14
30.2573
30.3732
30.4878
30.6011
30.713
30.8237
30.9331
31.0411
31.1479
31.2534
31.3577
31.4607
31.5625
31.663
31.7623
31.8603
31.9572
32.0529
32.1473
32.2406
32.3327
32.4236
32.5133
32.6019
32.6893
32.7756
32.8607
32.9447
33.0276
33.1093
33.19
33.2695
33.3479
33.4252
33.5015
33.5766
33.6507
33.7237
33.7957
33.8665
33.9364
34.0051
34.0729
34.1395
34.2052
34.2698
34.3334
34.396
34.4575
34.5181
34.5776
34.6362
34.6937
34.7502
34.8058
34.8604
34.914
34.9666
35.0182
35.0689
35.1186
35.1673
35.2151
35.2619
35.3077
35.3527
35.3966
35.4396
35.4817
35.5229
35.5631
35.6024
35.6407
35.6781
35.7146
35.7502
35.7849
35.8186
35.8514
35.8833
35.9143
35.9444
35.9736
36.0019
36.0293
36.0557
36.0813
36.106
36.1298
36.1527
36.1747
36.1958
36.216
36.2353
36.2538
36.2713
36.288
36.3038
36.3187
36.3327
36.3459
36.3581
36.3695
36.38
36.3896
36.3984
36.4063
36.4133
36.4194
36.4246
36.429
36.4325
36.4351
36.4369
36.4378
-11.4394
-11.4343
-11.4241
-11.4089
-11.3886
-11.3632
-11.3327
-11.2972
-11.2566
-11.2109
-11.1601
-11.1042
-11.0432
-10.9771
-10.9059
-10.8296
-10.7482
-10.6616
-10.57
-10.4732
-10.3712
-10.2642
-10.1519
-10.0346
-9.91204
-9.78438
-9.65157
-9.51362
-9.37053
-9.22232
-9.06901
-8.9106
-8.74713
-8.57863
-8.40514
-8.22671
-8.04338
-7.85523
-7.66233
-7.46476
-7.26262
-7.056
-6.84502
-6.6298
-6.41046
-6.18713
-5.95995
-5.72904
-5.49456
-5.25662
-5.01536
-4.77091
-4.5234
-4.27293
-4.01962
-3.76359
-3.50493
-3.24375
-2.98015
-2.71422
-2.44606
-2.17575
-1.90341
-1.62911
-1.35295
-1.07502
-0.79542
-0.514235
-0.231558
0.0525191
0.337905
0.62451
0.912244
1.20102
1.49074
1.78132
2.07268
2.36473
2.65738
2.95055
3.24416
3.53812
3.83235
4.12677
4.4213
4.71587
5.01041
5.30482
5.59905
5.89303
6.18667
6.47993
6.77272
7.06498
7.35665
7.64768
7.938
8.22754
8.51627
8.80412
9.09104
9.37697
9.66188
9.94571
10.2284
10.5099
10.7903
11.0693
11.3471
11.6236
11.8987
12.1724
12.4446
12.7154
12.9847
13.2525
13.5187
13.7833
14.0464
14.3078
14.5676
14.8257
15.0821
15.3368
15.5898
15.8411
16.0906
16.3383
16.5843
16.8285
17.0709
17.3114
17.5502
17.7871
18.0223
18.2555
18.487
18.7165
18.9443
19.1702
19.3942
19.6164
19.8367
20.0552
20.2718
20.4866
20.6995
20.9106
21.1198
21.3272
21.5328
21.7365
21.9384
22.1384
22.3367
22.5331
22.7277
22.9205
23.1115
23.3008
23.4882
23.6739
23.8578
24.04
24.2204
24.399
24.576
24.7512
24.9247
25.0965
25.2666
25.435
25.6018
25.7668
25.9303
26.092
26.2522
26.4107
26.5676
26.7228
26.8765
27.0286
27.1791
27.3281
27.4755
27.6214
27.7657
27.9085
28.0497
28.1895
28.3278
28.4646
28.5999
28.7338
28.8662
28.9971
29.1266
29.2547
29.3814
29.5067
29.6306
29.7531
29.8742
29.9939
30.1123
30.2294
30.3451
30.4595
30.5725
30.6843
30.7947
30.9038
31.0117
31.1183
31.2236
31.3277
31.4305
31.532
31.6324
31.7315
31.8293
31.926
32.0215
32.1157
32.2088
32.3007
32.3914
32.481
32.5694
32.6567
32.7428
32.8277
32.9116
32.9943
33.0759
33.1563
33.2357
33.314
33.3911
33.4672
33.5422
33.6162
33.689
33.7608
33.8316
33.9013
33.9699
34.0375
34.104
34.1696
34.234
34.2975
34.36
34.4214
34.4818
34.5413
34.5997
34.6571
34.7135
34.769
34.8234
34.8769
34.9294
34.981
35.0315
35.0811
35.1298
35.1774
35.2242
35.2699
35.3148
35.3586
35.4016
35.4436
35.4846
35.5248
35.564
35.6022
35.6396
35.676
35.7115
35.7461
35.7798
35.8125
35.8444
35.8753
35.9053
35.9345
35.9627
35.99
36.0164
36.042
36.0666
36.0903
36.1132
36.1351
36.1562
36.1764
36.1957
36.2141
36.2316
36.2482
36.264
36.2789
36.2929
36.306
36.3182
36.3296
36.3401
36.3497
36.3584
36.3663
36.3733
36.3794
36.3846
36.389
36.3925
36.3951
36.3968
36.3977
-11.4192
-11.4142
-11.4042
-11.3891
-11.3691
-11.344
-11.3139
-11.2789
-11.2388
-11.1936
-11.1435
-11.0883
-11.0281
-10.9629
-10.8926
-10.8173
-10.7369
-10.6515
-10.561
-10.4654
-10.3648
-10.2591
-10.1483
-10.0324
-9.91139
-9.7853
-9.65412
-9.51782
-9.37643
-9.22993
-9.07834
-8.92167
-8.75993
-8.59313
-8.42131
-8.2445
-8.06273
-7.87606
-7.68454
-7.48824
-7.28723
-7.08161
-6.87148
-6.65694
-6.43811
-6.21513
-5.98812
-5.75724
-5.52261
-5.2844
-5.04275
-4.79779
-4.54968
-4.29855
-4.04452
-3.78772
-3.52826
-3.26627
-3.00184
-2.73508
-2.46609
-2.19497
-1.92182
-1.64673
-1.36979
-1.09111
-0.810762
-0.528852
-0.245467
0.039299
0.325357
0.612615
0.900984
1.19037
1.4807
1.77186
2.06378
2.35638
2.64956
2.94324
3.23733
3.53176
3.82645
4.12131
4.41626
4.71124
5.00616
5.30094
5.59553
5.88984
6.1838
6.47736
6.77043
7.06297
7.3549
7.64616
7.9367
8.22646
8.51538
8.80341
9.09049
9.37658
9.66162
9.94557
10.2284
10.51
10.7904
11.0696
11.3474
11.6239
11.899
12.1727
12.445
12.7158
12.9851
13.2529
13.519
13.7836
14.0466
14.308
14.5677
14.8257
15.0821
15.3367
15.5896
15.8408
16.0902
16.3378
16.5836
16.8277
17.0699
17.3104
17.549
17.7857
18.0207
18.2538
18.4851
18.7145
18.942
19.1678
19.3916
19.6136
19.8337
20.052
20.2684
20.483
20.6957
20.9066
21.1156
21.3228
21.5281
21.7316
21.9332
22.1331
22.3311
22.5273
22.7217
22.9143
23.1051
23.2941
23.4813
23.6667
23.8504
24.0323
24.2125
24.3909
24.5677
24.7426
24.9159
25.0875
25.2573
25.4255
25.592
25.7569
25.9201
26.0816
26.2415
26.3998
26.5564
26.7115
26.8649
27.0168
27.1671
27.3158
27.463
27.6087
27.7528
27.8953
28.0364
28.1759
28.314
28.4506
28.5857
28.7193
28.8515
28.9823
29.1116
29.2395
29.3659
29.491
29.6147
29.737
29.8579
29.9775
30.0957
30.2125
30.328
30.4422
30.5551
30.6666
30.7769
30.8859
30.9935
31.0999
31.2051
31.309
31.4116
31.513
31.6131
31.7121
31.8098
31.9063
32.0016
32.0957
32.1886
32.2804
32.3709
32.4603
32.5486
32.6357
32.7216
32.8064
32.8901
32.9727
33.0541
33.1345
33.2137
33.2918
33.3689
33.4448
33.5197
33.5935
33.6663
33.7379
33.8085
33.8781
33.9466
34.0141
34.0805
34.1459
34.2103
34.2737
34.336
34.3973
34.4577
34.517
34.5753
34.6326
34.689
34.7443
34.7987
34.8521
34.9045
34.9559
35.0064
35.0559
35.1045
35.1521
35.1987
35.2444
35.2891
35.3329
35.3758
35.4177
35.4587
35.4988
35.5379
35.5761
35.6134
35.6498
35.6852
35.7197
35.7533
35.786
35.8178
35.8487
35.8787
35.9078
35.9359
35.9632
35.9896
36.0151
36.0397
36.0634
36.0862
36.1081
36.1291
36.1493
36.1685
36.1869
36.2044
36.221
36.2367
36.2516
36.2656
36.2787
36.2909
36.3022
36.3127
36.3223
36.331
36.3388
36.3458
36.3519
36.3571
36.3615
36.365
36.3676
36.3693
36.3702
-11.3884
-11.3834
-11.3736
-11.3588
-11.3391
-11.3144
-11.2848
-11.2503
-11.2109
-11.1665
-11.1172
-11.0629
-11.0036
-10.9394
-10.8703
-10.7961
-10.717
-10.6328
-10.5437
-10.4496
-10.3504
-10.2462
-10.137
-10.0228
-9.90349
-9.77915
-9.64975
-9.51528
-9.37575
-9.23114
-9.08147
-8.92672
-8.76691
-8.60205
-8.43215
-8.25722
-8.07731
-7.89244
-7.70264
-7.50798
-7.30851
-7.1043
-6.89543
-6.68201
-6.46414
-6.24193
-6.01552
-5.78504
-5.55064
-5.31249
-5.07072
-4.82551
-4.57701
-4.32537
-4.07074