/*--------------------------------*- C++ -*----------------------------------*\
| =========                 |                                                 |
| \\      /  F ield         | OpenFOAM: The Open Source CFD Toolbox           |
|  \\    /   O peration     | Version:  2212                                  |
|   \\  /    A nd           | Website:  www.openfoam.com                      |
|    \\/     M anipulation  |                                                 |
\*---------------------------------------------------------------------------*/
FoamFile
{
    version     2.0;
    format      ascii;
    arch        "LSB;label=32;scalar=64";
    class       surfaceScalarField;
    location    "120";
    object      phi;
}
// * * * * * * * * * * * * * * * * * * * * * * * * * * * * * * * * * * * * * //

dimensions      [1 0 -1 0 0 0 0];

oriented        oriented;

internalField   nonuniform List<scalar> 
408640
(
-942.311
940.618
-1884.09
941.325
-2825.39
940.845
-3765.63
939.793
-4704.09
938.029
-5640.09
935.563
-6572.83
932.292
-7501.42
928.151
-8424.95
923.07
-9342.41
917.006
-10252.8
909.947
-11155.2
901.936
-12048.8
893.077
-12932.8
883.516
-13806.7
873.395
-14669.9
862.773
-15522
851.594
-16362.2
839.723
-17189.8
827.044
-18003.8
813.543
-18803.6
799.297
-19588.6
784.411
-20358.1
768.957
-21111.5
752.969
-21848.5
736.482
-22568.6
719.556
-23271.4
702.269
-23956.6
684.696
-24624.1
666.911
-25273.6
648.989
-25905.1
631.003
-26518.6
613.01
-27114.2
595.049
-27691.8
577.141
-28251.7
559.308
-28793.7
541.568
-29318.2
523.932
-29825.1
506.407
-30314.6
489
-30786.8
471.72
-31241.9
454.577
-31679.9
437.576
-32101.1
420.721
-32505.6
404.014
-32893.6
387.457
-33265.1
371.054
-33620.4
354.81
-33959.6
338.732
-34282.9
322.826
-34590.4
307.1
-34882.4
291.561
-35159.1
276.213
-35420.6
261.064
-35667.2
246.116
-35899
231.376
-36116.3
216.846
-36319.2
202.531
-36508.1
188.435
-36683.1
174.562
-36844.4
160.916
-36992.3
147.501
-37127
134.32
-37248.8
121.377
-37357.9
108.675
-37454.5
96.2178
-37538.9
84.0077
-37611.3
72.0473
-37672.1
60.3388
-37721.3
48.8839
-37759.4
37.6841
-37786.5
26.7406
-37802.9
16.0541
-37808.9
5.62531
-37804.7
-4.54574
-37790.6
-14.4591
-37766.8
-24.1152
-37733.7
-33.5147
-37691.4
-42.6585
-37640.1
-51.5478
-37580.3
-60.184
-37512.1
-68.5687
-37435.7
-76.7039
-37351.4
-84.5916
-37259.5
-92.2339
-37160.1
-99.6334
-37053.7
-106.793
-36940.2
-113.714
-36820.1
-120.401
-36693.6
-126.856
-36560.8
-133.083
-36422
-139.084
-36277.4
-144.864
-36127.2
-150.425
-35971.7
-155.771
-35811.1
-160.905
-35645.5
-165.832
-35475.2
-170.555
-35300.4
-175.078
-35121.2
-179.404
-34937.9
-183.538
-34750.6
-187.484
-34559.6
-191.245
-34365
-194.825
-34167
-198.229
-33965.7
-201.461
-33761.4
-204.524
-33554.2
-207.422
-33344.2
-210.16
-33131.7
-212.741
-32916.7
-215.169
-32699.4
-217.449
-32480
-219.584
-32258.6
-221.578
-32035.3
-223.435
-31810.3
-225.159
-31583.7
-226.753
-31355.6
-228.222
-31126.2
-229.569
-30895.6
-230.797
-30663.8
-231.911
-30431
-232.913
-30197.3
-233.807
-29962.8
-234.598
-29727.6
-235.287
-29491.8
-235.879
-29255.6
-236.377
-29018.9
-236.783
-28781.9
-237.102
-28544.6
-237.335
-28307.2
-237.487
-28069.7
-237.56
-27832.2
-237.557
-27594.8
-237.481
-27357.5
-237.335
-27120.4
-237.121
-26883.6
-236.842
-26647.1
-236.501
-26411
-236.1
-26175.4
-235.641
-25940.3
-235.128
-25705.7
-234.562
-25471.8
-233.945
-25238.5
-233.281
-25005.9
-232.57
-24774.1
-231.816
-24543.1
-231.02
-24312.8
-230.184
-24083.5
-229.311
-23855.1
-228.401
-23627.5
-227.457
-23401
-226.481
-23175.5
-225.474
-22951
-224.438
-22727.5
-223.375
-22505.2
-222.286
-22283.9
-221.173
-22063.8
-220.037
-21844.8
-218.88
-21627
-217.703
-21410.4
-216.507
-21195
-215.293
-20980.8
-214.064
-20767.9
-212.82
-20556.2
-211.562
-20345.7
-210.291
-20136.6
-209.009
-19928.7
-207.716
-19722.2
-206.414
-19516.9
-205.103
-19312.9
-203.785
-19110.3
-202.46
-18909
-201.129
-18709
-199.794
-18510.4
-198.454
-18313.1
-197.111
-18117.1
-195.765
-17922.5
-194.418
-17729.3
-193.069
-17537.3
-191.72
-17346.7
-190.37
-17157.5
-189.022
-16969.6
-187.675
-16783.1
-186.329
-16597.8
-184.986
-16414
-183.646
-16231.4
-182.309
-16050.2
-180.977
-15870.3
-179.648
-15691.7
-178.324
-15514.4
-177.006
-15338.5
-175.693
-15163.8
-174.386
-14990.5
-173.085
-14818.4
-171.791
-14647.6
-170.504
-14478.1
-169.224
-14309.9
-167.951
-14142.9
-166.687
-13977.2
-165.43
-13812.7
-164.182
-13649.5
-162.943
-13487.5
-161.712
-13326.7
-160.49
-13167.1
-159.278
-13008.8
-158.075
-12851.6
-156.881
-12695.6
-155.698
-12540.7
-154.524
-12387.1
-153.36
-12234.5
-152.207
-12083.2
-151.063
-11932.9
-149.931
-11783.8
-148.809
-11635.8
-147.697
-11488.8
-146.596
-11343
-145.506
-11198.3
-144.427
-11054.6
-143.359
-10911.9
-142.303
-10770.4
-141.257
-10629.8
-140.222
-10490.3
-139.199
-10351.8
-138.187
-10214.3
-137.186
-10077.7
-136.197
-9942.18
-135.219
-9807.6
-134.253
-9673.97
-133.297
-9541.29
-132.354
-9409.54
-131.422
-9278.71
-130.501
-9148.79
-129.592
-9019.77
-128.694
-8891.64
-127.808
-8764.38
-126.933
-8637.98
-126.07
-8512.44
-125.218
-8387.74
-124.378
-8263.87
-123.549
-8140.82
-122.732
-8018.57
-121.926
-7897.12
-121.131
-7776.46
-120.348
-7656.57
-119.576
-7537.44
-118.815
-7419.06
-118.066
-7301.42
-117.328
-7184.51
-116.601
-7068.32
-115.885
-6952.84
-115.181
-6838.04
-114.487
-6723.94
-113.805
-6610.51
-113.134
-6497.74
-112.474
-6385.62
-111.824
-6274.14
-111.186
-6163.29
-110.559
-6053.06
-109.942
-5943.44
-109.336
-5834.41
-108.742
-5725.97
-108.157
-5618.11
-107.584
-5510.81
-107.021
-5404.07
-106.469
-5297.87
-105.927
-5192.2
-105.396
-5087.06
-104.876
-4982.43
-104.366
-4878.3
-103.866
-4774.67
-103.377
-4671.51
-102.898
-4568.83
-102.429
-4466.6
-101.971
-4364.83
-101.523
-4263.5
-101.085
-4162.6
-100.657
-4062.11
-100.239
-3962.04
-99.8314
-3862.37
-99.4338
-3763.09
-99.0462
-3664.19
-98.6685
-3565.65
-98.3007
-3467.48
-97.9429
-3369.66
-97.5949
-3272.18
-97.2567
-3175.03
-96.9283
-3078.2
-96.6097
-2981.68
-96.3008
-2885.46
-96.0015
-2789.54
-95.712
-2693.89
-95.4321
-2598.52
-95.1618
-2503.41
-94.901
-2408.56
-94.6499
-2313.94
-94.4082
-2219.56
-94.1761
-2125.41
-93.9534
-2031.47
-93.7402
-1937.74
-93.5364
-1844.2
-93.3421
-1750.85
-93.1571
-1657.67
-92.9815
-1564.66
-92.8152
-1471.81
-92.6583
-1379.11
-92.5107
-1286.55
-92.3725
-1194.12
-92.2435
-1101.81
-92.1237
-1009.61
-92.0133
-917.511
-91.9121
-825.506
-91.8202
-733.584
-91.7377
-641.736
-91.6645
-549.952
-91.6009
-458.223
-91.5471
-366.537
-91.5037
-274.884
-91.4713
-183.251
-91.4511
-91.6273
-91.4428
-91.446
-935.908
1876.03
-1871.75
1876.67
-2807.06
1875.68
-3741.23
1873.49
-4673.66
1869.99
-5603.69
1865.12
-6530.58
1858.72
-7453.57
1850.65
-8371.8
1840.82
-9284.41
1829.13
-10190.5
1815.56
-11089.3
1800.19
-11979.9
1783.18
-12861.6
1764.78
-13734
1745.23
-14596.3
1724.61
-15448.1
1702.82
-16288.5
1679.63
-17116.8
1654.82
-17932.2
1628.38
-18733.9
1600.43
-19521.1
1571.13
-20293.3
1540.62
-21049.9
1508.96
-21790.1
1476.22
-22513.7
1442.53
-23220
1408.04
-23908.7
1372.89
-24579.5
1337.24
-25232.3
1301.25
-25866.9
1265.06
-26483.2
1228.82
-27081.3
1192.6
-27661.1
1156.46
-28222.8
1120.46
-28766.4
1084.64
-29292
1049.05
-29799.8
1013.7
-30289.9
978.603
-30762.5
943.795
-31217.7
909.293
-31655.7
875.111
-32076.7
841.252
-32480.9
807.718
-32868.5
774.51
-33239.5
741.632
-33594.3
709.091
-33932.9
676.897
-34255.6
645.062
-34562.5
613.596
-34853.9
582.511
-35130
551.818
-35390.9
521.524
-35636.9
491.638
-35868.1
462.167
-36084.8
433.12
-36287.2
404.503
-36475.5
376.324
-36650
348.592
-36810.8
321.313
-36958.2
294.495
-37092.4
268.147
-37213.7
242.274
-37322.3
216.884
-37418.5
191.982
-37502.4
167.576
-37574.4
143.669
-37634.8
120.265
-37683.6
97.3692
-37721.3
74.9835
-37748
53.1104
-37764.1
31.7515
-37769.7
10.9079
-37765.2
-9.42008
-37750.8
-29.2327
-37726.7
-48.5308
-37693.3
-67.3156
-37650.7
-85.5891
-37599.2
-103.354
-37539.1
-120.612
-37470.6
-137.368
-37394
-153.624
-37309.6
-169.386
-37217.5
-184.657
-37118
-199.442
-37011.3
-213.747
-36897.7
-227.577
-36777.5
-240.938
-36650.8
-253.835
-36517.9
-266.276
-36379
-278.266
-36234.3
-289.812
-36084.1
-300.922
-35928.5
-311.601
-35767.8
-321.859
-35602.2
-331.701
-35431.9
-341.135
-35257
-350.169
-35077.9
-358.811
-34894.6
-367.069
-34707.3
-374.949
-34516.3
-382.461
-34321.8
-389.612
-34123.8
-396.41
-33922.6
-402.863
-33718.4
-408.98
-33511.2
-414.767
-33301.3
-420.233
-33088.9
-425.387
-32874
-430.235
-32656.8
-434.787
-32437.5
-439.049
-32216.3
-443.029
-31993.1
-446.736
-31768.3
-450.176
-31541.8
-453.358
-31313.9
-456.288
-31084.6
-458.975
-30854.1
-461.425
-30622.5
-463.646
-30389.9
-465.645
-30156.4
-467.428
-29922.1
-469.004
-29687.1
-470.377
-29451.6
-471.556
-29215.5
-472.546
-28979
-473.354
-28742.2
-473.987
-28505.2
-474.45
-28268
-474.75
-28030.7
-474.892
-27793.4
-474.882
-27556.2
-474.727
-27319.2
-474.431
-27082.4
-474
-26845.8
-473.439
-26609.6
-472.753
-26373.7
-471.949
-26138.4
-471.029
-25903.5
-470
-25669.2
-468.865
-25435.5
-467.631
-25202.5
-466.3
-24970.2
-464.877
-24738.6
-463.367
-24507.8
-461.773
-24277.9
-460.1
-24048.8
-458.351
-23820.7
-456.531
-23593.4
-454.642
-23367.2
-452.689
-23141.9
-450.675
-22917.7
-448.603
-22694.5
-446.476
-22472.4
-444.298
-22251.4
-442.071
-22031.6
-439.799
-21812.9
-437.484
-21595.3
-435.129
-21379
-432.737
-21163.9
-430.31
-20950
-427.852
-20737.3
-425.363
-20525.9
-422.847
-20315.7
-420.306
-20106.9
-417.742
-19899.3
-415.157
-19693
-412.553
-19488
-409.933
-19284.3
-407.297
-19082
-404.648
-18880.9
-401.987
-18681.2
-399.317
-18482.9
-396.638
-18285.8
-393.953
-18090.2
-391.262
-17895.8
-388.568
-17702.8
-385.871
-17511.1
-383.173
-17320.8
-380.476
-17131.8
-377.78
-16944.2
-375.087
-16757.9
-372.397
-16573
-369.712
-16389.3
-367.033
-16207
-364.361
-16026.1
-361.697
-15846.4
-359.041
-15668.1
-356.395
-15491.1
-353.759
-15315.4
-351.134
-15141
-348.521
-14967.9
-345.921
-14796.1
-343.334
-14625.6
-340.761
-14456.3
-338.203
-14288.3
-335.659
-14121.6
-333.131
-13956.1
-330.62
-13791.9
-328.125
-13628.9
-325.648
-13467.1
-323.188
-13306.5
-320.746
-13147.2
-318.322
-12989
-315.917
-12832.1
-313.532
-12676.3
-311.166
-12521.7
-308.82
-12368.3
-306.494
-12216
-304.188
-12064.8
-301.903
-11914.8
-299.639
-11765.9
-297.396
-11618.1
-295.175
-11471.4
-292.975
-11325.8
-290.796
-11181.2
-288.64
-11037.8
-286.505
-10895.3
-284.393
-10754
-282.303
-10613.6
-280.235
-10474.3
-278.19
-10336
-276.167
-10198.7
-274.167
-10062.4
-272.189
-9927.04
-270.235
-9792.66
-268.303
-9659.23
-266.394
-9526.75
-264.508
-9395.2
-262.645
-9264.56
-260.805
-9134.84
-258.988
-9006.01
-257.194
-8878.07
-255.423
-8751.01
-253.675
-8624.8
-251.949
-8499.45
-250.247
-8374.94
-248.568
-8251.26
-246.911
-8128.39
-245.277
-8006.33
-243.667
-7885.07
-242.078
-7764.58
-240.513
-7644.88
-238.97
-7525.93
-237.45
-7407.73
-235.952
-7290.27
-234.477
-7173.54
-233.025
-7057.52
-231.594
-6942.21
-230.186
-6827.6
-228.8
-6713.67
-227.437
-6600.41
-226.095
-6487.81
-224.776
-6375.86
-223.478
-6264.55
-222.203
-6153.87
-220.949
-6043.81
-219.717
-5934.35
-218.506
-5825.49
-217.317
-5717.22
-216.15
-5609.52
-215.004
-5502.39
-213.879
-5395.81
-212.775
-5289.77
-211.693
-5184.27
-210.632
-5079.28
-209.591
-4974.81
-208.572
-4870.84
-207.573
-4767.36
-206.596
-4664.37
-205.638
-4561.84
-204.702
-4459.77
-203.786
-4358.16
-202.89
-4256.98
-202.015
-4156.23
-201.16
-4055.9
-200.325
-3955.98
-199.51
-3856.46
-198.716
-3757.33
-197.941
-3658.58
-197.186
-3560.2
-196.451
-3462.18
-195.736
-3364.51
-195.04
-3267.18
-194.365
-3170.17
-193.708
-3073.49
-193.072
-2977.12
-192.454
-2881.05
-191.856
-2785.27
-191.278
-2689.77
-190.718
-2594.55
-190.178
-2499.58
-189.657
-2404.87
-189.155
-2310.41
-188.672
-2216.17
-188.208
-2122.16
-187.763
-2028.36
-187.337
-1934.77
-186.93
-1841.38
-186.541
-1748.17
-186.172
-1655.13
-185.821
-1562.27
-185.488
-1469.56
-185.175
-1377
-184.88
-1284.58
-184.604
-1192.29
-184.346
-1100.12
-184.107
-1008.06
-183.886
-916.108
-183.684
-824.244
-183.5
-732.463
-183.335
-640.756
-183.188
-549.113
-183.061
-457.524
-182.954
-365.979
-182.867
-274.467
-182.802
-182.976
-182.761
-91.4919
-182.745
-182.757
-928.444
2803.93
-1856.71
2804.4
-2784.39
2802.84
-3710.94
2799.51
-4635.8
2794.32
-5558.35
2787.14
-6477.95
2777.78
-7393.9
2766.06
-8305.47
2751.85
-9211.92
2735.03
-10112.5
2715.57
-11006.4
2693.56
-11893
2669.21
-12771.6
2642.82
-13641.6
2614.66
-14502.4
2584.84
-15353.4
2553.2
-16193.8
2519.44
-17022.8
2483.3
-17839.7
2444.74
-18643.8
2403.87
-19434.1
2360.92
-20210.1
2316.02
-20971
2269.27
-21716.1
2220.78
-22444.9
2170.73
-23156.7
2119.33
-23851.2
2066.78
-24527.8
2013.32
-25186.3
1959.19
-25826.4
1904.64
-26448
1849.87
-27051
1795.02
-27635.3
1740.22
-28200.9
1685.58
-28748
1631.18
-29276.5
1577.11
-29786.8
1523.42
-30278.8
1470.15
-30752.9
1417.36
-31209.2
1365.09
-31647.9
1313.36
-32069.3
1262.18
-32473.6
1211.56
-32861.1
1161.48
-33231.9
1111.96
-33586.2
1062.98
-33924.4
1014.56
-34246.5
966.719
-34552.8
919.457
-34843.5
872.789
-35118.9
826.725
-35379.1
781.274
-35624.3
736.444
-35854.9
692.244
-36070.9
648.682
-36272.6
605.769
-36460.2
563.515
-36633.9
521.93
-36794.1
481.026
-36940.8
440.814
-37074.4
401.306
-37195
362.512
-37303
324.443
-37398.5
287.107
-37481.8
250.513
-37553.2
214.669
-37612.9
179.582
-37661.1
145.255
-37698.2
111.695
-37724.4
78.9039
-37739.9
46.8846
-37745
15.6385
-37739.9
-14.8338
-37725
-44.5327
-37700.4
-73.4595
-37666.4
-101.616
-37623.4
-129.006
-37571.4
-155.632
-37510.9
-181.498
-37441.9
-206.611
-37364.9
-230.974
-37280
-254.595
-37187.5
-277.481
-37087.6
-299.637
-36980.6
-321.074
-36866.7
-341.797
-36746.1
-361.817
-36619.1
-381.143
-36485.9
-399.783
-36346.6
-417.747
-36201.7
-435.046
-36051.2
-451.69
-35895.4
-467.689
-35734.4
-483.055
-35568.6
-497.799
-35398
-511.931
-35223
-525.463
-35043.6
-538.407
-34860.2
-550.774
-34672.8
-562.576
-34481.6
-573.826
-34286.9
-584.535
-34088.8
-594.714
-33887.5
-604.377
-33683.2
-613.534
-33475.9
-622.199
-33266
-630.382
-33053.5
-638.097
-32838.5
-645.354
-32621.3
-652.166
-32402
-658.544
-32180.7
-664.5
-31957.6
-670.046
-31732.7
-675.193
-31506.3
-679.952
-31278.3
-684.335
-31049.1
-688.352
-30818.7
-692.015
-30587.1
-695.335
-30354.5
-698.321
-30121.1
-700.985
-29886.9
-703.337
-29652
-705.387
-29416.5
-707.144
-29180.5
-708.62
-28944.1
-709.823
-28707.4
-710.763
-28470.5
-711.449
-28233.4
-711.89
-27996.3
-712.095
-27759.2
-712.072
-27522.1
-711.832
-27285.2
-711.38
-27048.5
-710.727
-26812.1
-709.879
-26576.1
-708.844
-26340.4
-707.631
-26105.2
-706.246
-25870.5
-704.696
-25636.4
-702.989
-25402.9
-701.132
-25170.1
-699.131
-24937.9
-696.992
-24706.6
-694.723
-24476
-692.328
-24246.3
-689.815
-24017.4
-687.189
-23789.4
-684.455
-23562.4
-681.619
-23336.3
-678.686
-23111.3
-675.661
-22887.3
-672.551
-22664.3
-669.358
-22442.5
-666.088
-22221.7
-662.746
-22002.1
-659.336
-21783.6
-655.862
-21566.3
-652.329
-21350.2
-648.739
-21135.3
-645.098
-20921.6
-641.409
-20709.2
-637.676
-20498
-633.901
-20288.1
-630.089
-20079.4
-626.242
-19872.1
-622.364
-19666
-618.458
-19461.3
-614.527
-19257.8
-610.573
-19055.7
-606.6
-18854.9
-602.609
-18655.4
-598.604
-18457.3
-594.586
-18260.5
-590.558
-18065.1
-586.523
-17871
-582.482
-17678.2
-578.438
-17486.8
-574.392
-17296.7
-570.347
-17107.9
-566.304
-16920.5
-562.265
-16734.5
-558.232
-16549.7
-554.205
-16366.4
-550.188
-16184.3
-546.181
-16003.6
-542.186
-15824.1
-538.204
-15646.1
-534.236
-15469.3
-530.283
-15293.8
-526.348
-15119.6
-522.43
-14946.8
-518.531
-14775.2
-514.652
-14604.9
-510.794
-14435.8
-506.958
-14268.1
-503.145
-14101.5
-499.355
-13936.3
-495.589
-13772.3
-491.849
-13609.5
-488.134
-13447.9
-484.446
-13287.6
-480.785
-13128.5
-477.151
-12970.5
-473.546
-12813.8
-469.969
-12658.2
-466.422
-12503.8
-462.905
-12350.6
-459.418
-12198.5
-455.961
-12047.6
-452.535
-11897.8
-449.141
-11749
-445.779
-11601.5
-442.448
-11455
-439.15
-11309.5
-435.884
-11165.2
-432.651
-11021.9
-429.451
-10879.7
-426.284
-10738.6
-423.151
-10598.4
-420.051
-10459.3
-416.985
-10321.2
-413.953
-10184.1
-410.955
-10047.9
-407.99
-9912.77
-405.06
-9778.58
-402.165
-9645.34
-399.303
-9513.05
-396.476
-9381.68
-393.683
-9251.24
-390.925
-9121.7
-388.201
-8993.05
-385.511
-8865.29
-382.856
-8738.41
-380.236
-8612.38
-377.65
-8487.21
-375.098
-8362.87
-372.58
-8239.37
-370.097
-8116.68
-367.648
-7994.79
-365.233
-7873.7
-362.853
-7753.39
-360.506
-7633.85
-358.193
-7515.07
-355.915
-7397.05
-353.67
-7279.75
-351.459
-7163.19
-349.281
-7047.34
-347.137
-6932.2
-345.026
-6817.75
-342.949
-6703.98
-340.905
-6590.88
-338.894
-6478.44
-336.916
-6366.66
-334.972
-6255.51
-333.059
-6144.99
-331.18
-6035.08
-329.333
-5925.78
-327.518
-5817.08
-325.736
-5708.96
-323.986
-5601.42
-322.268
-5494.44
-320.582
-5388.01
-318.928
-5282.13
-317.306
-5176.78
-315.715
-5071.95
-314.156
-4967.63
-312.628
-4863.81
-311.131
-4760.48
-309.665
-4657.63
-308.23
-4555.25
-306.827
-4453.33
-305.453
-4351.86
-304.111
-4250.83
-302.799
-4150.23
-301.517
-4050.04
-300.266
-3950.27
-299.045
-3850.89
-297.854
-3751.91
-296.692
-3653.3
-295.561
-3555.06
-294.46
-3457.18
-293.388
-3359.65
-292.345
-3262.46
-291.332
-3165.59
-290.348
-3069.05
-289.394
-2972.82
-288.468
-2876.89
-287.572
-2781.25
-286.705
-2685.89
-285.866
-2590.8
-285.057
-2495.97
-284.276
-2401.4
-283.523
-2307.07
-282.799
-2212.97
-282.104
-2119.09
-281.437
-2025.43
-280.798
-1931.98
-280.188
-1838.72
-279.606
-1745.64
-279.052
-1652.74
-278.526
-1560.01
-278.028
-1467.44
-277.558
-1375.01
-277.115
-1282.73
-276.701
-1190.57
-276.315
-1098.53
-275.956
-1006.61
-275.625
-914.784
-275.322
-823.053
-275.047
-731.405
-274.799
-639.83
-274.58
-548.32
-274.389
-456.863
-274.228
-365.451
-274.097
-274.071
-274
-182.711
-273.939
-91.3582
-273.917
-273.934
-918.667
3721.99
-1837.11
3722.24
-2754.91
3720.04
-3671.58
3715.57
-4586.61
3708.75
-5499.46
3699.39
-6409.56
3687.27
-7316.33
3672.22
-8219.17
3654.07
-9117.46
3632.7
-10010.6
3608.07
-10897.9
3580.26
-11778.8
3549.49
-12652.7
3516.08
-13519
3480.3
-14377
3442.23
-15226.1
3401.7
-16065.7
3358.36
-16895
3311.93
-17713.2
3262.31
-18519.6
3209.63
-19313.4
3154.07
-20093.8
3095.78
-20860
3034.87
-21611.3
2971.47
-22347
2905.8
-23066.4
2838.1
-23768.8
2768.63
-24453.8
2697.68
-25120.7
2625.57
-25769.3
2552.63
-26399.1
2479.16
-27010
2405.36
-27601.8
2331.44
-28174.4
2257.59
-28727.7
2183.96
-29261.8
2110.71
-29776.8
2037.94
-30272.9
1965.76
-30750.4
1894.26
-31209.3
1823.54
-31650.1
1753.65
-32073
1684.6
-32478.3
1616.39
-32866.3
1549.03
-33237.3
1482.5
-33591.6
1416.79
-33929.4
1351.92
-34251.1
1287.89
-34556.8
1224.69
-34846.8
1162.34
-35121.3
1100.84
-35380.7
1040.18
-35625.1
980.378
-35854.7
921.43
-36069.8
863.345
-36270.6
806.131
-36457.3
749.8
-36630.1
694.364
-36789.4
639.838
-36935.2
586.237
-37067.9
533.574
-37187.6
481.864
-37294.7
431.121
-37389.3
381.357
-37471.8
332.584
-37542.3
284.812
-37601.2
238.048
-37648.6
192.301
-37684.9
147.577
-37710.2
103.879
-37724.9
61.2108
-37729.2
19.5746
-37723.4
-21.0291
-37707.6
-60.6009
-37682.3
-99.1424
-37647.6
-136.657
-37603.8
-173.147
-37551.1
-208.619
-37489.9
-243.078
-37420.3
-276.531
-37342.6
-308.985
-37257.1
-340.449
-37163.9
-370.932
-37063.4
-400.443
-36955.8
-428.994
-36841.3
-456.594
-36720.2
-483.256
-36592.6
-508.991
-36458.9
-533.813
-36319.2
-557.734
-36173.7
-580.768
-36022.7
-602.929
-35866.5
-624.23
-35705.1
-644.687
-35538.8
-664.314
-35367.9
-683.126
-35192.4
-701.139
-35012.7
-718.368
-34828.9
-734.828
-34641.2
-750.535
-34449.7
-765.506
-34254.7
-779.756
-34056.3
-793.3
-33854.8
-806.156
-33650.2
-818.339
-33442.7
-829.865
-33232.5
-840.75
-33019.8
-851.01
-32804.7
-860.661
-32587.3
-869.718
-32367.8
-878.198
-32146.4
-886.116
-31923.1
-893.487
-31698.1
-900.326
-31471.6
-906.649
-31243.6
-912.471
-31014.3
-917.807
-30783.7
-922.67
-30552.1
-927.076
-30319.5
-931.038
-30086.1
-934.571
-29851.8
-937.688
-29616.9
-940.403
-29381.4
-942.73
-29145.5
-944.68
-28909.1
-946.268
-28672.4
-947.505
-28435.6
-948.404
-28198.6
-948.977
-27961.5
-949.236
-27724.4
-949.192
-27487.4
-948.857
-27250.6
-948.243
-27014
-947.359
-26777.7
-946.216
-26541.8
-944.825
-26306.2
-943.196
-26071.2
-941.339
-25836.6
-939.263
-25602.6
-936.977
-25369.3
-934.491
-25136.6
-931.814
-24904.6
-928.954
-24673.4
-925.92
-24443
-922.72
-24213.4
-919.361
-23984.7
-915.852
-23756.9
-912.2
-23530.1
-908.412
-23304.2
-904.496
-23079.4
-900.458
-22855.5
-896.304
-22632.8
-892.043
-22411.1
-887.678
-22190.6
-883.218
-21971.1
-878.667
-21752.9
-874.031
-21535.8
-869.316
-21319.9
-864.527
-21105.2
-859.669
-20891.8
-854.747
-20679.5
-849.766
-20468.6
-844.731
-20258.9
-839.646
-20050.5
-834.515
-19843.3
-829.343
-19637.5
-824.134
-19433
-818.891
-19229.8
-813.618
-19027.9
-808.319
-18827.3
-802.997
-18628.1
-797.656
-18430.2
-792.298
-18233.7
-786.928
-18038.4
-781.548
-17844.6
-776.16
-17652
-770.768
-17460.8
-765.374
-17271
-759.98
-17082.5
-754.59
-16895.3
-749.205
-16709.5
-743.828
-16525
-738.461
-16341.9
-733.105
-16160
-727.763
-15979.6
-722.437
-15800.4
-717.129
-15622.5
-711.84
-15446
-706.571
-15270.7
-701.325
-15096.8
-696.103
-14924.2
-690.906
-14752.8
-685.736
-14582.7
-680.594
-14413.9
-675.48
-14246.4
-670.398
-14080.1
-665.346
-13915.1
-660.327
-13751.3
-655.342
-13588.8
-650.391
-13427.4
-645.476
-13267.3
-640.596
-13108.4
-635.754
-12950.7
-630.949
-12794.2
-626.182
-12638.9
-621.455
-12484.7
-616.767
-12331.7
-612.12
-12179.8
-607.513
-12029.1
-602.948
-11879.5
-598.425
-11731
-593.944
-11583.6
-589.505
-11437.3
-585.11
-11292.1
-580.758
-11148
-576.449
-11005
-572.185
-10863
-567.965
-10722
-563.79
-10582.1
-559.659
-10443.1
-555.573
-10305.2
-551.533
-10168.3
-547.537
-10032.4
-543.587
-9897.45
-539.683
-9763.46
-535.824
-9630.42
-532.011
-9498.33
-528.244
-9367.16
-524.523
-9236.91
-520.847
-9107.57
-517.217
-8979.12
-513.634
-8851.55
-510.096
-8724.86
-506.604
-8599.03
-503.158
-8474.05
-499.758
-8349.9
-496.403
-8226.58
-493.094
-8104.08
-489.831
-7982.38
-486.614
-7861.48
-483.441
-7741.35
-480.315
-7622
-477.233
-7503.4
-474.197
-7385.56
-471.206
-7268.45
-468.26
-7152.06
-465.358
-7036.39
-462.501
-6921.42
-459.689
-6807.15
-456.922
-6693.56
-454.198
-6580.63
-451.519
-6468.37
-448.883
-6356.76
-446.292
-6245.78
-443.744
-6135.43
-441.24
-6025.7
-438.779
-5916.57
-436.362
-5808.03
-433.987
-5700.08
-431.655
-5592.71
-429.367
-5485.89
-427.12
-5379.63
-424.916
-5273.91
-422.755
-5168.72
-420.635
-5064.05
-418.557
-4959.9
-416.521
-4856.24
-414.527
-4753.07
-412.574
-4650.38
-410.663
-4548.16
-408.792
-4446.4
-406.963
-4345.09
-405.174
-4244.21
-403.426
-4143.77
-401.719
-4043.74
-400.051
-3944.12
-398.424
-3844.9
-396.837
-3746.07
-395.29
-3647.61
-393.783
-3549.53
-392.315
-3451.8
-390.887
-3354.42
-389.498
-3257.38
-388.148
-3160.67
-386.838
-3064.28
-385.566
-2968.19
-384.333
-2872.41
-383.139
-2776.92
-381.983
-2681.71
-380.866
-2586.77
-379.787
-2492.09
-378.747
-2397.66
-377.744
-2303.48
-376.78
-2209.52
-375.853
-2115.8
-374.965
-2022.28
-374.114
-1928.97
-373.301
-1835.86
-372.525
-1742.93
-371.787
-1650.17
-371.086
-1557.58
-370.422
-1465.15
-369.796
-1372.87
-369.207
-1280.73
-368.655
-1188.72
-368.14
-1096.82
-367.663
-1005.04
-367.222
-913.361
-366.818
-821.772
-366.451
-730.267
-366.121
-638.835
-365.829
-547.467
-365.574
-456.154
-365.359
-364.884
-365.185
-273.647
-365.056
-182.43
-364.975
-91.2194
-364.946
-364.972
-908.659
4629.98
-1816.98
4629.89
-2724.6
4626.98
-3631.07
4621.37
-4535.96
4612.96
-5438.77
4601.52
-6339.01
4586.84
-7236.2
4568.72
-8129.82
4547
-9019.36
4521.54
-9904.28
4492.3
-10784.1
4459.34
-11658.2
4422.9
-12526.1
4383.26
-13387.2
4340.69
-14240.9
4295.25
-15086.7
4246.74
-15923.8
4194.8
-16751.7
4139.11
-17569.7
4079.56
-18376.9
4016.21
-19172.8
3949.22
-19956.4
3878.72
-20727.1
3804.81
-21483.9
3727.64
-22226.3
3647.44
-22953.3
3564.45
-23664.3
3478.95
-24358.5
3391.24
-25035.3
3301.72
-25694
3210.78
-26334.2
3118.77
-26955.5
3026
-27557.4
2932.74
-28139.6
2839.28
-28702.1
2745.86
-29244.6
2652.73
-29767.3
2560.08
-30270.2
2468.12
-30753.5
2377.02
-31217.4
2286.95
-31662.2
2198
-32088.4
2110.24
-32496.2
2023.69
-32886
1938.35
-33258.2
1854.21
-33613.1
1771.27
-33951.2
1689.52
-34272.7
1608.94
-34578
1529.53
-34867.4
1451.29
-35141.2
1374.19
-35399.7
1298.21
-35643.1
1223.36
-35871.7
1149.61
-36085.8
1076.97
-36285.5
1005.43
-36471.1
935.006
-36642.9
865.71
-36801
797.556
-36945.7
730.56
-37077.3
664.741
-37196
600.115
-37302
536.7
-37395.5
474.511
-37476.9
413.562
-37546.3
353.866
-37604.1
295.433
-37650.4
238.273
-37685.6
182.392
-37709.9
127.796
-37723.5
74.4895
-37726.8
22.4743
-37719.9
-28.2488
-37703.2
-77.6805
-37676.9
-125.823
-37641.2
-172.68
-37596.4
-218.257
-37542.8
-262.559
-37480.6
-305.594
-37410.1
-347.37
-37331.5
-387.898
-37245.1
-427.187
-37151.1
-465.249
-37049.7
-502.096
-36941.3
-537.741
-36826
-572.199
-36704.1
-605.483
-36575.7
-637.608
-36441.2
-668.592
-36300.8
-698.45
-36154.6
-727.198
-36003
-754.855
-35846
-781.438
-35684
-806.965
-35517.1
-831.456
-35345.6
-854.928
-35169.6
-877.4
-34989.3
-898.893
-34804.9
-919.426
-34616.7
-939.018
-34424.7
-957.689
-34229.2
-975.46
-34030.4
-992.35
-33828.4
-1008.38
-33623.3
-1023.57
-33415.5
-1037.94
-33204.9
-1051.5
-32991.8
-1064.29
-32776.3
-1076.32
-32558.6
-1087.6
-32338.8
-1098.17
-32117.1
-1108.03
-31893.5
-1117.21
-31668.3
-1125.72
-31441.5
-1133.59
-31213.3
-1140.84
-30983.7
-1147.47
-30753
-1153.52
-30521.2
-1159
-30288.5
-1163.92
-30054.8
-1168.31
-29820.5
-1172.18
-29585.4
-1175.54
-29349.8
-1178.42
-29113.8
-1180.84
-28877.3
-1182.79
-28640.6
-1184.32
-28403.7
-1185.42
-28166.6
-1186.11
-27929.5
-1186.41
-27692.4
-1186.33
-27455.4
-1185.89
-27218.6
-1185.11
-26982.1
-1183.98
-26745.8
-1182.53
-26509.8
-1180.78
-26274.3
-1178.72
-26039.3
-1176.38
-25804.8
-1173.77
-25570.9
-1170.9
-25337.6
-1167.78
-25105
-1164.42
-24873.1
-1160.83
-24642
-1157.02
-24411.7
-1153.01
-24182.2
-1148.8
-23953.6
-1144.4
-23726
-1139.82
-23499.3
-1135.08
-23273.5
-1130.17
-23048.8
-1125.11
-22825.2
-1119.91
-22602.6
-1114.58
-22381
-1109.11
-22160.6
-1103.53
-21941.4
-1097.83
-21723.3
-1092.03
-21506.4
-1086.13
-21290.7
-1080.14
-21076.2
-1074.06
-20862.9
-1067.9
-20650.9
-1061.67
-20440.1
-1055.37
-20230.6
-1049.01
-20022.4
-1042.59
-19815.4
-1036.12
-19609.8
-1029.61
-19405.5
-1023.05
-19202.5
-1016.46
-19000.8
-1009.83
-18800.5
-1003.18
-18601.4
-996.497
-18403.8
-989.799
-18207.4
-983.084
-18012.4
-976.357
-17818.8
-969.621
-17626.4
-962.88
-17435.5
-956.136
-17245.8
-949.394
-17057.6
-942.656
-16870.6
-935.924
-16685
-929.203
-16500.8
-922.494
-16317.8
-915.799
-16136.2
-909.123
-15956
-902.466
-15777
-895.831
-15599.4
-889.22
-15423.1
-882.635
-15248
-876.079
-15074.3
-869.552
-14901.9
-863.058
-14730.8
-856.596
-14560.9
-850.17
-14392.4
-843.78
-14225
-837.428
-14059
-831.116
-13894.2
-824.844
-13730.6
-818.614
-13568.3
-812.428
-13407.2
-806.285
-13247.3
-800.188
-13088.6
-794.137
-12931.1
-788.133
-12774.8
-782.178
-12619.7
-776.271
-12465.7
-770.414
-12312.9
-764.607
-12161.3
-758.851
-12010.8
-753.147
-11861.4
-747.495
-11713.1
-741.897
-11566
-736.351
-11419.9
-730.859
-11274.9
-725.422
-11131
-720.039
-10988.1
-714.712
-10846.3
-709.439
-10705.6
-704.223
-10565.9
-699.062
-10427.1
-693.958
-10289.4
-688.91
-10152.7
-683.918
-10017
-678.983
-9882.25
-674.106
-9748.46
-669.285
-9615.63
-664.521
-9483.73
-659.815
-9352.76
-655.166
-9222.7
-650.574
-9093.55
-646.04
-8965.3
-641.563
-8837.92
-637.144
-8711.42
-632.781
-8585.78
-628.477
-8460.99
-624.229
-8337.03
-620.038
-8213.9
-615.905
-8091.58
-611.829
-7970.07
-607.809
-7849.34
-603.847
-7729.4
-599.941
-7610.23
-596.092
-7491.82
-592.299
-7374.15
-588.562
-7257.22
-584.882
-7141.01
-581.258
-7025.52
-577.689
-6910.73
-574.176
-6796.63
-570.719
-6683.21
-567.317
-6570.46
-563.97
-6458.37
-560.678
-6346.93
-557.441
-6236.12
-554.259
-6125.94
-551.131
-6016.37
-548.057
-5907.41
-545.037
-5799.05
-542.071
-5691.26
-539.158
-5584.05
-536.299
-5477.4
-533.493
-5371.31
-530.74
-5265.75
-528.04
-5160.72
-525.393
-5056.22
-522.798
-4952.22
-520.255
-4848.72
-517.764
-4745.71
-515.324
-4643.18
-512.937
-4541.12
-510.6
-4439.52
-508.315
-4338.36
-506.081
-4237.64
-503.897
-4137.35
-501.764
-4037.48
-499.682
-3938.01
-497.65
-3838.95
-495.668
-3740.27
-493.735
-3641.96
-491.852
-3544.03
-490.019
-3446.45
-488.235
-3349.22
-486.5
-3252.33
-484.814
-3155.77
-483.177
-3059.53
-481.589
-2963.6
-480.049
-2867.96
-478.557
-2772.62
-477.114
-2677.56
-475.719
-2582.76
-474.371
-2488.23
-473.071
-2393.95
-471.819
-2299.91
-470.615
-2206.1
-469.458
-2112.52
-468.348
-2019.15
-467.285
-1925.98
-466.269
-1833.01
-465.3
-1740.23
-464.378
-1647.62
-463.503
-1555.17
-462.674
-1462.89
-461.892
-1370.75
-461.156
-1278.75
-460.467
-1186.88
-459.824
-1095.13
-459.227
-1003.49
-458.676
-911.947
-458.172
-820.5
-457.713
-729.136
-457.301
-637.846
-456.936
-546.619
-456.618
-455.447
-456.35
-364.318
-456.133
-273.222
-455.971
-182.145
-455.87
-91.0756
-455.835
-455.867
-897.639
5526.87
-1794.86
5526.37
-2691.32
5522.69
-3586.64
5515.93
-4480.41
5505.97
-5372.21
5492.56
-6261.62
5475.49
-7148.23
5454.56
-8031.61
5429.61
-8911.31
5400.48
-9786.91
5367.12
-10657.9
5329.58
-11523.9
5288.08
-12384.3
5242.91
-13238.7
5194.31
-14086.6
5142.3
-14927.3
5086.68
-15760.3
5027.07
-16585.2
4963.15
-17401.2
4894.76
-18207.7
4821.92
-19004
4744.74
-19789.3
4663.3
-20563
4577.72
-21324.3
4488.15
-22072.4
4394.78
-22806.5
4297.84
-23525.9
4197.56
-24229.6
4094.26
-24916.9
3988.35
-25587.1
3880.23
-26239.3
3770.33
-26873
3658.99
-27487.5
3546.58
-28082.3
3433.46
-28657
3319.97
-29211.3
3206.46
-29745
3093.25
-30258.1
2980.65
-30750.6
2868.97
-31222.7
2758.47
-31674.6
2649.38
-32106.6
2541.8
-32519.2
2435.82
-32912.9
2331.48
-33287.9
2228.8
-33644.9
2127.78
-33984.3
2028.41
-34306.5
1930.68
-34612
1834.55
-34901.1
1740.01
-35174.4
1646.99
-35432.1
1555.47
-35674.6
1465.39
-35902.1
1376.72
-36115
1289.43
-36313.5
1203.5
-36497.9
1118.95
-36668.3
1035.76
-36825.1
953.96
-36968.5
873.558
-37098.8
794.573
-37216.1
717.025
-37320.7
640.934
-37412.9
566.319
-37493
493.195
-37561
421.578
-37617.5