/*--------------------------------*- C++ -*----------------------------------*\
| =========                 |                                                 |
| \\      /  F ield         | OpenFOAM: The Open Source CFD Toolbox           |
|  \\    /   O peration     | Version:  2212                                  |
|   \\  /    A nd           | Website:  www.openfoam.com                      |
|    \\/     M anipulation  |                                                 |
\*---------------------------------------------------------------------------*/
FoamFile
{
    version     2.0;
    format      ascii;
    arch        "LSB;label=32;scalar=64";
    class       volScalarField;
    location    "380";
    object      p_rgh_0;
}
// * * * * * * * * * * * * * * * * * * * * * * * * * * * * * * * * * * * * * //

dimensions      [1 -1 -2 0 0 0 0];

internalField   nonuniform List<scalar> 
204800
(
23.9839
23.9708
23.9461
23.91
23.8625
23.8041
23.735
23.6558
23.5671
23.4694
23.3634
23.2497
23.1289
23.0016
22.8685
22.73
22.5867
22.439
22.2875
22.1326
21.9746
21.814
21.6512
21.4864
21.32
21.1523
20.9835
20.814
20.6441
20.4739
20.3037
20.1338
19.9644
19.7957
19.6279
19.4612
19.2958
19.1319
18.9696
18.8092
18.6507
18.4945
18.3405
18.1889
18.0399
17.8937
17.7503
17.6098
17.4724
17.3381
17.2072
17.0796
16.9554
16.8348
16.7178
16.6045
16.495
16.3893
16.2874
16.1895
16.0955
16.0056
15.9197
15.8379
15.7602
15.6867
15.6173
15.5521
15.491
15.4342
15.3815
15.333
15.2887
15.2486
15.2126
15.1808
15.1531
15.1295
15.1099
15.0945
15.083
15.0755
15.072
15.0724
15.0767
15.0847
15.0966
15.1122
15.1315
15.1544
15.1809
15.2109
15.2444
15.2813
15.3215
15.3651
15.4119
15.4618
15.5149
15.571
15.6301
15.6921
15.7569
15.8246
15.8949
15.968
16.0436
16.1217
16.2023
16.2853
16.3706
16.4581
16.5479
16.6398
16.7337
16.8296
16.9275
17.0272
17.1287
17.232
17.3369
17.4434
17.5515
17.6611
17.7721
17.8845
17.9981
18.1131
18.2292
18.3465
18.4648
18.5842
18.7045
18.8258
18.9479
19.0709
19.1946
19.3191
19.4442
19.5699
19.6962
19.823
19.9503
20.0781
20.2063
20.3348
20.4636
20.5927
20.722
20.8515
20.9812
21.111
21.2409
21.3708
21.5008
21.6307
21.7606
21.8904
22.0201
22.1497
22.2791
22.4083
22.5372
22.6659
22.7944
22.9225
23.0503
23.1778
23.3049
23.4315
23.5578
23.6836
23.809
23.9339
24.0583
24.1821
24.3055
24.4283
24.5505
24.6721
24.7931
24.9136
25.0333
25.1525
25.271
25.3888
25.5059
25.6224
25.7381
25.8531
25.9674
26.0809
26.1937
26.3058
26.4171
26.5276
26.6373
26.7462
26.8543
26.9616
27.0681
27.1738
27.2787
27.3827
27.4859
27.5882
27.6897
27.7904
27.8901
27.989
28.0871
28.1843
28.2806
28.376
28.4705
28.5642
28.6569
28.7488
28.8398
28.9299
29.019
29.1073
29.1947
29.2812
29.3667
29.4514
29.5352
29.618
29.6999
29.7809
29.861
29.9402
30.0185
30.0959
30.1723
30.2478
30.3225
30.3962
30.4689
30.5408
30.6118
30.6818
30.7509
30.8191
30.8864
30.9528
31.0182
31.0827
31.1464
31.2091
31.2709
31.3318
31.3918
31.4508
31.509
31.5662
31.6226
31.678
31.7326
31.7862
31.8389
31.8907
31.9416
31.9917
32.0408
32.089
32.1363
32.1827
32.2282
32.2729
32.3166
32.3594
32.4014
32.4425
32.4826
32.5219
32.5603
32.5978
32.6344
32.6701
32.705
32.7389
32.772
32.8042
32.8355
32.8659
32.8955
32.9241
32.9519
32.9789
33.0049
33.0301
33.0543
33.0778
33.1003
33.122
33.1428
33.1627
33.1818
33.1999
33.2172
33.2337
33.2493
33.264
33.2778
33.2908
33.3029
33.3141
33.3245
33.334
33.3427
33.3504
33.3574
33.3634
33.3686
33.3729
33.3764
33.379
33.3807
33.3816
23.9748
23.9612
23.9348
23.8961
23.8453
23.7832
23.7103
23.6273
23.535
23.434
23.3251
23.209
23.0862
22.9573
22.8229
22.6834
22.5394
22.3913
22.2396
22.0845
21.9266
21.7661
21.6034
21.4388
21.2726
21.1052
20.9367
20.7676
20.5979
20.4281
20.2583
20.0887
19.9196
19.7513
19.5838
19.4174
19.2524
19.0888
18.9269
18.7668
18.6087
18.4527
18.299
18.1478
17.9992
17.8532
17.7101
17.5699
17.4328
17.2989
17.1682
17.0408
16.917
16.7966
16.6799
16.5669
16.4576
16.3521
16.2504
16.1528
16.059
15.9693
15.8836
15.802
15.7245
15.6511
15.5819
15.5169
15.456
15.3993
15.3467
15.2984
15.2542
15.2142
15.1783
15.1466
15.119
15.0955
15.076
15.0606
15.0492
15.0418
15.0384
15.0388
15.0431
15.0512
15.0631
15.0787
15.098
15.1209
15.1474
15.1774
15.2108
15.2477
15.2879
15.3314
15.3782
15.4281
15.4811
15.5371
15.5961
15.6581
15.7229
15.7904
15.8607
15.9336
16.0091
16.0872
16.1676
16.2505
16.3357
16.4231
16.5127
16.6045
16.6983
16.794
16.8917
16.9913
17.0927
17.1958
17.3005
17.4069
17.5148
17.6242
17.735
17.8472
17.9607
18.0755
18.1914
18.3085
18.4267
18.5458
18.666
18.7871
18.909
19.0317
19.1553
19.2795
19.4044
19.5299
19.656
19.7826
19.9097
20.0372
20.1652
20.2935
20.4221
20.5509
20.68
20.8093
20.9388
21.0684
21.198
21.3277
21.4575
21.5872
21.7168
21.8464
21.9759
22.1052
22.2344
22.3633
22.4921
22.6205
22.7488
22.8767
23.0042
23.1315
23.2583
23.3848
23.5108
23.6364
23.7615
23.8862
24.0104
24.134
24.2571
24.3797
24.5017
24.6231
24.7439
24.8641
24.9837
25.1026
25.2208
25.3384
25.4554
25.5716
25.6871
25.8019
25.916
26.0293
26.1419
26.2537
26.3648
26.4751
26.5846
26.6933
26.8013
26.9084
27.0147
27.1202
27.2248
27.3287
27.4316
27.5338
27.6351
27.7355
27.8351
27.9339
28.0317
28.1287
28.2248
28.3201
28.4144
28.5079
28.6005
28.6922
28.783
28.8729
28.9619
29.05
29.1372
29.2235
29.3089
29.3934
29.477
29.5597
29.6415
29.7223
29.8023
29.8813
29.9595
30.0367
30.113
30.1884
30.2628
30.3364
30.409
30.4807
30.5516
30.6215
30.6904
30.7585
30.8257
30.8919
30.9572
31.0216
31.0852
31.1477
31.2094
31.2702
31.3301
31.389
31.4471
31.5042
31.5604
31.6158
31.6702
31.7237
31.7763
31.8281
31.8789
31.9288
31.9778
32.0259
32.0732
32.1195
32.1649
32.2095
32.2531
32.2959
32.3377
32.3787
32.4188
32.458
32.4963
32.5337
32.5703
32.6059
32.6407
32.6746
32.7076
32.7397
32.771
32.8014
32.8309
32.8595
32.8872
32.9141
32.9401
32.9652
32.9894
33.0128
33.0353
33.0569
33.0777
33.0976
33.1166
33.1347
33.152
33.1684
33.184
33.1986
33.2125
33.2254
33.2375
33.2487
33.2591
33.2685
33.2772
33.2849
33.2918
33.2979
33.3031
33.3074
33.3108
33.3134
33.3151
33.316
23.9503
23.9372
23.9112
23.8728
23.8225
23.7608
23.6882
23.6056
23.5136
23.413
23.3044
23.1886
23.066
22.9373
22.803
22.6637
22.5198
22.3718
22.2201
22.0651
21.9072
21.7468
21.5841
21.4196
21.2535
21.0862
20.9178
20.7487
20.5792
20.4094
20.2397
20.0702
19.9012
19.7329
19.5656
19.3993
19.2344
19.0709
18.909
18.7491
18.5911
18.4352
18.2816
18.1305
17.982
17.8361
17.6931
17.553
17.416
17.2822
17.1516
17.0244
16.9006
16.7804
16.6637
16.5508
16.4416
16.3362
16.2347
16.1371
16.0435
15.9539
15.8683
15.7868
15.7094
15.6361
15.567
15.502
15.4412
15.3846
15.3322
15.2839
15.2399
15.1999
15.1642
15.1325
15.105
15.0816
15.0623
15.047
15.0357
15.0283
15.025
15.0255
15.0299
15.0381
15.0501
15.0658
15.0851
15.1081
15.1347
15.1648
15.1983
15.2353
15.2756
15.3192
15.366
15.416
15.4691
15.5252
15.5843
15.6463
15.7111
15.7788
15.8491
15.9221
15.9977
16.0758
16.1563
16.2393
16.3245
16.412
16.5017
16.5935
16.6873
16.7832
16.8809
16.9805
17.082
17.1851
17.2899
17.3963
17.5043
17.6137
17.7246
17.8368
17.9504
18.0652
18.1812
18.2983
18.4165
18.5357
18.6559
18.777
18.8989
19.0217
19.1453
19.2695
19.3944
19.52
19.6461
19.7727
19.8998
20.0274
20.1554
20.2837
20.4123
20.5412
20.6703
20.7996
20.9291
21.0586
21.1883
21.318
21.4478
21.5775
21.7071
21.8367
21.9662
22.0955
22.2247
22.3537
22.4824
22.6109
22.7391
22.867
22.9946
23.1218
23.2486
23.3751
23.5011
23.6267
23.7518
23.8765
24.0006
24.1243
24.2474
24.3699
24.4919
24.6133
24.7341
24.8543
24.9739
25.0928
25.211
25.3286
25.4455
25.5617
25.6772
25.792
25.9061
26.0194
26.132
26.2438
26.3548
26.4651
26.5746
26.6833
26.7912
26.8983
27.0046
27.1101
27.2147
27.3185
27.4215
27.5236
27.6249
27.7253
27.8249
27.9236
28.0214
28.1184
28.2145
28.3097
28.4041
28.4975
28.5901
28.6817
28.7725
28.8624
28.9514
29.0395
29.1267
29.213
29.2984
29.3828
29.4664
29.5491
29.6308
29.7117
29.7916
29.8706
29.9487
30.0259
30.1022
30.1776
30.252
30.3255
30.3982
30.4699
30.5407
30.6105
30.6795
30.7476
30.8147
30.8809
30.9462
31.0106
31.0741
31.1367
31.1984
31.2591
31.319
31.3779
31.4359
31.4931
31.5493
31.6046
31.659
31.7125
31.7651
31.8168
31.8676
31.9175
31.9665
32.0146
32.0618
32.1082
32.1536
32.1981
32.2417
32.2845
32.3263
32.3673
32.4074
32.4466
32.4849
32.5223
32.5588
32.5944
32.6292
32.6631
32.6961
32.7282
32.7594
32.7898
32.8193
32.8479
32.8756
32.9025
32.9285
32.9536
32.9778
33.0012
33.0237
33.0453
33.066
33.0859
33.1049
33.1231
33.1403
33.1567
33.1723
33.187
33.2008
33.2137
33.2258
33.237
33.2474
33.2568
33.2655
33.2732
33.2801
33.2862
33.2913
33.2956
33.2991
33.3017
33.3034
33.3043
23.9152
23.9018
23.8752
23.8358
23.7842
23.721
23.6469
23.5627
23.4691
23.367
23.2571
23.14
23.0164
22.8868
22.7519
22.612
22.4677
22.3194
22.1675
22.0125
21.8546
21.6942
21.5317
21.3673
21.2014
21.0343
20.8662
20.6973
20.5281
20.3586
20.1892
20.02
19.8514
19.6834
19.5164
19.3505
19.1858
19.0227
18.8612
18.7015
18.5439
18.3883
18.2351
18.0843
17.9361
17.7905
17.6478
17.5081
17.3714
17.2378
17.1076
16.9806
16.8572
16.7372
16.6209
16.5082
16.3993
16.2942
16.1929
16.0956
16.0022
15.9128
15.8275
15.7462
15.6691
15.5961
15.5272
15.4624
15.4018
15.3454
15.2932
15.2452
15.2013
15.1615
15.126
15.0945
15.0672
15.0439
15.0247
15.0096
14.9984
14.9913
14.988
14.9887
14.9932
15.0015
15.0136
15.0294
15.0489
15.072
15.0987
15.1289
15.1625
15.1995
15.2399
15.2836
15.3305
15.3805
15.4336
15.4898
15.549
15.611
15.6759
15.7436
15.8139
15.887
15.9625
16.0407
16.1212
16.2041
16.2894
16.3769
16.4665
16.5583
16.6521
16.748
16.8457
16.9453
17.0467
17.1498
17.2545
17.3609
17.4688
17.5782
17.689
17.8012
17.9147
18.0294
18.1453
18.2624
18.3805
18.4996
18.6197
18.7407
18.8626
18.9853
19.1087
19.2329
19.3577
19.4831
19.6092
19.7357
19.8627
19.9901
20.118
20.2462
20.3747
20.5034
20.6324
20.7616
20.8909
21.0204
21.1499
21.2795
21.4091
21.5387
21.6683
21.7977
21.927
22.0562
22.1852
22.3141
22.4427
22.571
22.6991
22.8268
22.9542
23.0813
23.208
23.3343
23.4602
23.5856
23.7106
23.8351
23.9591
24.0826
24.2056
24.328
24.4498
24.5711
24.6917
24.8117
24.9311
25.0499
25.168
25.2854
25.4022
25.5182
25.6336
25.7482
25.8621
25.9753
26.0877
26.1994
26.3103
26.4204
26.5298
26.6383
26.7461
26.853
26.9592
27.0645
27.169
27.2727
27.3755
27.4775
27.5786
27.6789
27.7783
27.8769
27.9746
28.0714
28.1674
28.2625
28.3567
28.45
28.5424
28.634
28.7246
28.8144
28.9032
28.9912
29.0782
29.1644
29.2497
29.334
29.4175
29.5
29.5816
29.6624
29.7422
29.8211
29.8991
29.9761
30.0523
30.1275
30.2019
30.2753
30.3478
30.4194
30.4901
30.5599
30.6287
30.6967
30.7637
30.8298
30.895
30.9593
31.0227
31.0852
31.1468
31.2074
31.2672
31.326
31.384
31.441
31.4971
31.5524
31.6067
31.6601
31.7126
31.7642
31.815
31.8648
31.9137
31.9618
32.0089
32.0551
32.1005
32.1449
32.1885
32.2312
32.273
32.3139
32.3539
32.393
32.4312
32.4686
32.5051
32.5406
32.5754
32.6092
32.6421
32.6742
32.7054
32.7357
32.7651
32.7937
32.8214
32.8482
32.8741
32.8992
32.9234
32.9467
32.9692
32.9907
33.0115
33.0313
33.0503
33.0684
33.0857
33.102
33.1175
33.1322
33.146
33.1589
33.171
33.1822
33.1925
33.202
33.2106
33.2183
33.2252
33.2312
33.2364
33.2407
33.2442
33.2467
33.2485
33.2493
23.8694
23.8563
23.8301
23.7914
23.7405
23.6781
23.6049
23.5215
23.4288
23.3275
23.2182
23.1017
22.9786
22.8495
22.7149
22.5753
22.4313
22.2832
22.1315
21.9766
21.8188
21.6586
21.4962
21.332
21.1662
20.9992
20.8312
20.6625
20.4934
20.3241
20.1549
19.9859
19.8174
19.6496
19.4827
19.317
19.1525
18.9896
18.8282
18.6688
18.5113
18.3559
18.2029
18.0523
17.9042
17.7589
17.6164
17.4768
17.3403
17.207
17.0769
16.9501
16.8268
16.7071
16.5909
16.4785
16.3697
16.2648
16.1638
16.0666
15.9734
15.8842
15.7991
15.718
15.6411
15.5682
15.4995
15.435
15.3746
15.3184
15.2663
15.2185
15.1748
15.1352
15.0998
15.0686
15.0414
15.0184
14.9994
14.9844
14.9734
14.9665
14.9634
14.9642
14.9689
14.9775
14.9897
15.0057
15.0254
15.0487
15.0755
15.1059
15.1397
15.1769
15.2174
15.2613
15.3083
15.3585
15.4118
15.4681
15.5274
15.5897
15.6547
15.7225
15.793
15.8662
15.942
16.0202
16.1009
16.184
16.2693
16.357
16.4468
16.5387
16.6326
16.7286
16.8264
16.9262
17.0277
17.1309
17.2358
17.3422
17.4503
17.5598
17.6707
17.783
17.8965
18.0114
18.1274
18.2445
18.3627
18.4819
18.6021
18.7232
18.8452
18.9679
19.0914
19.2157
19.3406
19.4661
19.5921
19.7187
19.8458
19.9733
20.1012
20.2294
20.358
20.4868
20.6158
20.7451
20.8744
21.0039
21.1335
21.2631
21.3928
21.5224
21.652
21.7814
21.9108
22.04
22.1691
22.2979
22.4265
22.5549
22.683
22.8107
22.9382
23.0652
23.192
23.3183
23.4442
23.5696
23.6946
23.8191
23.9431
24.0666
24.1895
24.3119
24.4338
24.555
24.6756
24.7957
24.9151
25.0338
25.1519
25.2693
25.3861
25.5021
25.6175
25.7321
25.846
25.9591
26.0715
26.1832
26.2941
26.4042
26.5135
26.622
26.7298
26.8367
26.9428
27.0481
27.1526
27.2562
27.359
27.461
27.5621
27.6624
27.7618
27.8603
27.958
28.0548
28.1507
28.2458
28.3399
28.4332
28.5256
28.6172
28.7078
28.7975
28.8863
28.9743
29.0613
29.1474
29.2327
29.317
29.4004
29.4829
29.5645
29.6452
29.725
29.8039
29.8818
29.9589
30.035
30.1102
30.1845
30.2579
30.3304
30.402
30.4726
30.5424
30.6112
30.6791
30.7461
30.8122
30.8774
30.9417
31.005
31.0675
31.129
31.1896
31.2494
31.3082
31.3661
31.4231
31.4792
31.5344
31.5887
31.6421
31.6946
31.7462
31.7969
31.8467
31.8956
31.9436
31.9907
32.037
32.0823
32.1267
32.1703
32.2129
32.2547
32.2956
32.3356
32.3747
32.4129
32.4502
32.4867
32.5222
32.5569
32.5907
32.6237
32.6557
32.6869
32.7172
32.7466
32.7752
32.8028
32.8296
32.8555
32.8806
32.9048
32.9281
32.9505
32.9721
32.9928
33.0127
33.0316
33.0497
33.067
33.0833
33.0988
33.1135
33.1273
33.1402
33.1522
33.1634
33.1738
33.1832
33.1918
33.1996
33.2065
33.2125
33.2176
33.2219
33.2254
33.228
33.2297
33.2305
23.8125
23.7994
23.7732
23.7344
23.6833
23.6207
23.5472
23.4636
23.3706
23.269
23.1595
23.0428
22.9194
22.7901
22.6553
22.5156
22.3715
22.2233
22.0716
21.9168
21.7591
21.599
21.4367
21.2727
21.1071
20.9403
20.7726
20.6042
20.4353
20.2663
20.0974
19.9287
19.7605
19.5931
19.4265
19.2611
19.097
18.9344
18.7734
18.6143
18.4571
18.3021
18.1494
17.9992
17.8515
17.7065
17.5643
17.4251
17.2889
17.1559
17.0261
16.8997
16.7768
16.6573
16.5415
16.4293
16.3209
16.2163
16.1156
16.0187
15.9259
15.837
15.7521
15.6714
15.5947
15.5221
15.4537
15.3894
15.3293
15.2734
15.2216
15.174
15.1306
15.0913
15.0562
15.0252
14.9983
14.9755
14.9567
14.942
14.9313
14.9245
14.9217
14.9228
14.9277
14.9364
14.9489
14.9651
14.985
15.0085
15.0355
15.0661
15.1001
15.1375
15.1782
15.2222
15.2694
15.3198
15.3733
15.4298
15.4892
15.5516
15.6168
15.6847
15.7554
15.8287
15.9046
15.9829
16.0638
16.1469
16.2324
16.3202
16.4101
16.5021
16.5961
16.6922
16.7901
16.8899
16.9915
17.0948
17.1997
17.3063
17.4143
17.5239
17.6349
17.7472
17.8608
17.9757
18.0917
18.2089
18.3271
18.4463
18.5665
18.6876
18.8096
18.9324
19.0559
19.1801
19.305
19.4305
19.5566
19.6832
19.8102
19.9377
20.0656
20.1938
20.3223
20.4511
20.5801
20.7093
20.8386
20.9681
21.0976
21.2272
21.3568
21.4863
21.6159
21.7453
21.8746
22.0037
22.1327
22.2615
22.39
22.5183
22.6463
22.774
22.9014
23.0284
23.155
23.2813
23.4071
23.5324
23.6573
23.7818
23.9057
24.0291
24.1519
24.2742
24.396
24.5171
24.6377
24.7576
24.8769
24.9956
25.1135
25.2309
25.3475
25.4635
25.5787
25.6932
25.807
25.9201
26.0324
26.1439
26.2547
26.3647
26.4739
26.5824
26.69
26.7968
26.9028
27.008
27.1124
27.2159
27.3186
27.4205
27.5215
27.6216
27.7209
27.8194
27.917
28.0137
28.1095
28.2044
28.2985
28.3917
28.484
28.5754
28.6659
28.7556
28.8443
28.9321
29.0191
29.1051
29.1902
29.2745
29.3578
29.4402
29.5217
29.6023
29.682
29.7608
29.8386
29.9156
29.9916
30.0667
30.141
30.2143
30.2867
30.3581
30.4287
30.4984
30.5671
30.6349
30.7019
30.7679
30.833
30.8972
30.9604
31.0228
31.0843
31.1448
31.2045
31.2632
31.3211
31.378
31.434
31.4892
31.5434
31.5967
31.6492
31.7007
31.7513
31.8011
31.8499
31.8978
31.9449
31.991
32.0363
32.0807
32.1242
32.1668
32.2085
32.2493
32.2892
32.3283
32.3665
32.4037
32.4401
32.4757
32.5103
32.5441
32.577
32.609
32.6401
32.6704
32.6997
32.7282
32.7559
32.7826
32.8085
32.8335
32.8577
32.881
32.9034
32.9249
32.9456
32.9654
32.9844
33.0024
33.0197
33.036
33.0515
33.0661
33.0799
33.0928
33.1048
33.116
33.1263
33.1357
33.1443
33.1521
33.1589
33.165
33.1701
33.1744
33.1778
33.1804
33.1821
33.183
23.7472
23.7344
23.7087
23.6707
23.6206
23.5591
23.4868
23.4044
23.3126
23.2121
23.1036
22.9878
22.8653
22.7366
22.6025
22.4633
22.3196
22.1718
22.0204
21.8658
21.7084
21.5485
21.3865
21.2226
21.0573
20.8907
20.7232
20.555
20.3863
20.2175
20.0488
19.8804
19.7124
19.5452
19.3789
19.2137
19.0499
18.8875
18.7268
18.5679
18.411
18.2563
18.1038
17.9538
17.8064
17.6617
17.5197
17.3808
17.2449
17.1121
16.9826
16.8565
16.7338
16.6146
16.4991
16.3872
16.2791
16.1747
16.0742
15.9777
15.8851
15.7965
15.7119
15.6314
15.555
15.4827
15.4146
15.3506
15.2908
15.2351
15.1836
15.1363
15.0932
15.0542
15.0193
14.9886
14.962
14.9394
14.921
14.9065
14.8961
14.8896
14.887
14.8884
14.8936
14.9026
14.9153
14.9318
14.952
14.9757
15.003
15.0338
15.0681
15.1058
15.1467
15.191
15.2385
15.2891
15.3428
15.3996
15.4593
15.5219
15.5873
15.6555
15.7264
15.8
15.8761
15.9547
16.0357
16.1191
16.2048
16.2928
16.3829
16.4751
16.5694
16.6656
16.7638
16.8637
16.9655
17.069
17.1741
17.2809
17.3891
17.4989
17.61
17.7225
17.8363
17.9513
18.0675
18.1848
18.3032
18.4226
18.5429
18.6642
18.7863
18.9092
19.0328
19.1572
19.2822
19.4078
19.534
19.6607
19.7879
19.9154
20.0434
20.1717
20.3003
20.4292
20.5583
20.6876
20.817
20.9465
21.0762
21.2058
21.3355
21.4651
21.5947
21.7241
21.8535
21.9827
22.1118
22.2406
22.3692
22.4975
22.6256
22.7533
22.8807
23.0077
23.1344
23.2607
23.3865
23.5119
23.6368
23.7613
23.8852
24.0086
24.1315
24.2538
24.3756
24.4967
24.6173
24.7372
24.8565
24.9752
25.0932
25.2105
25.3271
25.4431
25.5583
25.6728
25.7866
25.8997
26.012
26.1235
26.2343
26.3443
26.4535
26.5619
26.6695
26.7763
26.8823
26.9875
27.0918
27.1954
27.298
27.3999
27.5009
27.601
27.7003
27.7987
27.8962
27.9929
28.0887
28.1836
28.2777
28.3708
28.4631
28.5545
28.645
28.7346
28.8233
28.9111
28.998
29.084
29.1691
29.2533
29.3366
29.419
29.5004
29.581
29.6606
29.7394
29.8172
29.8941
29.9702
30.0452
30.1194
30.1927
30.2651
30.3365
30.407
30.4767
30.5454
30.6132
30.6801
30.746
30.8111
30.8753
30.9385
31.0009
31.0623
31.1228
31.1824
31.2412
31.299
31.3559
31.4119
31.467
31.5212
31.5745
31.6269
31.6784
31.729
31.7787
31.8275
31.8754
31.9224
31.9686
32.0138
32.0582
32.1016
32.1442
32.1859
32.2267
32.2666
32.3056
32.3438
32.381
32.4174
32.4529
32.4875
32.5213
32.5541
32.5861
32.6172
32.6475
32.6768
32.7053
32.7329
32.7597
32.7856
32.8106
32.8347
32.858
32.8804
32.9019
32.9225
32.9423
32.9613
32.9793
32.9965
33.0129
33.0284
33.043
33.0567
33.0696
33.0816
33.0928
33.1031
33.1126
33.1212
33.1289
33.1358
33.1418
33.1469
33.1512
33.1546
33.1572
33.1589
33.1598
23.6713
23.6586
23.6332
23.5956
23.5459
23.485
23.4132
23.3314
23.2402
23.1402
23.0322
22.9168
22.7947
22.6664
22.5325
22.3936
22.2501
22.1025
21.9514
21.797
21.6398
21.4801
21.3183
21.1547
20.9896
20.8233
20.656
20.4881
20.3198
20.1513
19.9829
19.8148
19.6472
19.4804
19.3144
19.1496
18.9861
18.8241
18.6637
18.5052
18.3487
18.1943
18.0423
17.8926
17.7456
17.6012
17.4597
17.3211
17.1855
17.0532
16.924
16.7983
16.676
16.5572
16.442
16.3304
16.2227
16.1187
16.0186
15.9224
15.8301
15.7419
15.6577
15.5775
15.5015
15.4296
15.3618
15.2981
15.2387
15.1834
15.1322
15.0853
15.0424
15.0038
14.9693
14.9389
14.9126
14.8904
14.8723
14.8581
14.848
14.8419
14.8397
14.8413
14.8468
14.8561
14.8692
14.886
14.9064
14.9305
14.9581
14.9892
15.0238
15.0617
15.103
15.1475
15.1953
15.2462
15.3002
15.3572
15.4172
15.48
15.5457
15.6142
15.6853
15.7591
15.8354
15.9143
15.9955
16.0792
16.1651
16.2533
16.3436
16.436
16.5305
16.6269
16.7252
16.8254
16.9273
17.031
17.1363
17.2432
17.3516
17.4615
17.5728
17.6854
17.7994
17.9145
18.0309
18.1483
18.2668
18.3863
18.5068
18.6281
18.7503
18.8733
18.9971
19.1215
19.2466
19.3723
19.4986
19.6254
19.7526
19.8802
20.0083
20.1366
20.2653
20.3942
20.5234
20.6527
20.7822
20.9117
21.0414
21.171
21.3007
21.4304
21.56
21.6895
21.8188
21.948
22.0771
22.2059
22.3345
22.4628
22.5909
22.7186
22.846
22.973
23.0997
23.2259
23.3517
23.4771
23.602
23.7264
23.8503
23.9737
24.0965
24.2188
24.3405
24.4616
24.5821
24.702
24.8213
24.9399
25.0579
25.1751
25.2917
25.4076
25.5228
25.6372
25.751
25.864
25.9762
26.0877
26.1984
26.3083
26.4174
26.5258
26.6333
26.7401
26.846
26.9511
27.0554
27.1588
27.2615
27.3632
27.4641
27.5642
27.6634
27.7617
27.8592
27.9558
28.0515
28.1464
28.2404
28.3334
28.4256
28.517
28.6074
28.6969
28.7855
28.8732
28.9601
29.046
29.131
29.2151
29.2984
29.3807
29.4621
29.5426
29.6221
29.7008
29.7786
29.8554
29.9314
30.0064
30.0805
30.1537
30.226
30.2974
30.3678
30.4374
30.506
30.5737
30.6406
30.7065
30.7715
30.8356
30.8988
30.961
31.0224
31.0829
31.1424
31.2011
31.2588
31.3157
31.3716
31.4266
31.4808
31.534
31.5864
31.6378
31.6884
31.738
31.7868
31.8346
31.8816
31.9277
31.9729
32.0172
32.0606
32.1031
32.1447
32.1855
32.2254
32.2643
32.3024
32.3397
32.376
32.4115
32.446
32.4797
32.5126
32.5445
32.5756
32.6058
32.6351
32.6636
32.6912
32.7179
32.7437
32.7687
32.7928
32.816
32.8384
32.8599
32.8805
32.9003
32.9192
32.9373
32.9545
32.9708
32.9862
33.0008
33.0146
33.0274
33.0395
33.0506
33.0609
33.0703
33.0789
33.0866
33.0935
33.0995
33.1046
33.1089
33.1124
33.1149
33.1166
33.1175
23.588
23.5756
23.5508
23.514
23.4655
23.4058
23.3354
23.2551
23.1652
23.0667
22.96
22.8458
22.7247
22.5974
22.4644
22.3262
22.1834
22.0364
21.8857
21.7318
21.575
21.4157
21.2542
21.0909
20.9261
20.76
20.5931
20.4255
20.2574
20.0892
19.9211
19.7533
19.586
19.4194
19.2538
19.0893
18.9261
18.7644
18.6044
18.4462
18.29
18.1359
17.9842
17.8349
17.6881
17.5441
17.4029
17.2646
17.1294
16.9974
16.8686
16.7432
16.6212
16.5028
16.3879
16.2767
16.1693
16.0657
15.9659
15.8701
15.7782
15.6903
15.6064
15.5266
15.451
15.3794
15.312
15.2487
15.1896
15.1346
15.0838
15.0372
14.9948
14.9565
14.9224
14.8923
14.8664
14.8446
14.8268
14.8131
14.8033
14.7975
14.7957
14.7977
14.8036
14.8133
14.8267
14.8439
14.8647
14.8891
14.9171
14.9485
14.9834
15.0218
15.0634
15.1083
15.1564
15.2076
15.262
15.3193
15.3796
15.4428
15.5088
15.5776
15.6491
15.7232
15.7999
15.879
15.9606
16.0445
16.1308
16.2192
16.3099
16.4026
16.4973
16.5941
16.6927
16.7931
16.8953
16.9993
17.1049
17.212
17.3207
17.4308
17.5424
17.6552
17.7694
17.8848
18.0014
18.119
18.2377
18.3575
18.4781
18.5997
18.7221
18.8453
18.9693
19.0939
19.2192
19.345
19.4715
19.5984
19.7258
19.8536
19.9818
20.1103
20.2391
20.3682
20.4975
20.6269
20.7565
20.8862
21.016
21.1458
21.2756
21.4053
21.535
21.6646
21.7941
21.9234
22.0525
22.1814
22.3101
22.4385
22.5667
22.6945
22.8219
22.949
23.0757
23.202
23.3279
23.4533
23.5783
23.7027
23.8267
23.9501
24.073
24.1953
24.317
24.4382
24.5587
24.6787
24.7979
24.9166
25.0345
25.1518
25.2684
25.3843
25.4995
25.614
25.7277
25.8407
25.953
26.0644
26.1752
26.2851
26.3942
26.5026
26.6101
26.7169
26.8228
26.9279
27.0321
27.1356
27.2382
27.3399
27.4408
27.5409
27.6401
27.7384
27.8358
27.9324
28.0281
28.1229
28.2169
28.31
28.4021
28.4934
28.5838
28.6733
28.7619
28.8496
28.9364
29.0223
29.1073
29.1914
29.2746
29.3568
29.4382
29.5187
29.5982
29.6769
29.7546
29.8314
29.9073
29.9823
30.0564
30.1296
30.2018
30.2732
30.3436
30.4131
30.4817
30.5494
30.6162
30.6821
30.747
30.8111
30.8743
30.9365
30.9978
31.0583
31.1178
31.1764
31.2341
31.2909
31.3468
31.4019
31.456
31.5092
31.5615
31.6129
31.6634
31.713
31.7618
31.8096
31.8565
31.9026
31.9478
31.992
32.0354
32.0779
32.1195
32.1602
32.2001
32.239
32.2771
32.3143
32.3506
32.3861
32.4206
32.4543
32.4871
32.519
32.5501
32.5803
32.6096
32.638
32.6656
32.6923
32.7181
32.743
32.7671
32.7904
32.8127
32.8342
32.8548
32.8746
32.8935
32.9115
32.9287
32.945
32.9604
32.975
32.9887
33.0016
33.0136
33.0248
33.0351
33.0445
33.0531
33.0608
33.0676
33.0736
33.0788
33.083
33.0865
33.089
33.0908
33.0916
23.4947
23.4825
23.4582
23.4221
23.3744
23.3156
23.2463
23.167
23.0782
22.9807
22.8749
22.7617
22.6415
22.5149
22.3826
22.2451
22.1028
21.9563
21.8061
21.6526
21.4962
21.3373
21.1761
21.0132
20.8487
20.683
20.5164
20.3491
20.1814
20.0136
19.8458
19.6784
19.5115
19.3453
19.18
19.0159
18.8531
18.6918
18.5322
18.3744
18.2186
18.065
17.9136
17.7647
17.6184
17.4748
17.334
17.1962
17.0614
16.9298
16.8014
16.6764
16.5548
16.4368
16.3223
16.2116
16.1046
16.0014
15.902
15.8066
15.7151
15.6277
15.5442
15.4649
15.3896
15.3185
15.2515
15.1886
15.1299
15.0754
15.025
14.9789
14.9368
14.899
14.8652
14.8356
14.8102
14.7887
14.7714
14.7581
14.7487
14.7434
14.7419
14.7444
14.7507
14.7607
14.7746
14.7921
14.8134
14.8382
14.8665
14.8984
14.9337
14.9724
15.0144
15.0597
15.1082
15.1598
15.2145
15.2723
15.3329
15.3965
15.4629
15.532
15.6038
15.6783
15.7553
15.8348
15.9167
16.0009
16.0875
16.1763
16.2672
16.3602
16.4553
16.5523
16.6512
16.752
16.8545
16.9587
17.0645
17.1719
17.2809
17.3913
17.503
17.6162
17.7306
17.8462
17.963
18.0808
18.1998
18.3197
18.4406
18.5623
18.685
18.8083
18.9325
19.0573
19.1827
19.3088
19.4354
19.5624
19.69
19.8179
19.9463
20.0749
20.2039
20.3331
20.4625
20.592
20.7217
20.8515
20.9814
21.1113
21.2412
21.371
21.5008
21.6305
21.76
21.8894
22.0186
22.1476
22.2763
22.4048
22.5329
22.6608
22.7883
22.9154
23.0422
23.1685
23.2944
23.4199
23.5448
23.6693
23.7933
23.9167
24.0396
24.1619
24.2837
24.4048
24.5254
24.6453
24.7646
24.8832
25.0012
25.1185
25.235
25.3509
25.4661
25.5806
25.6943
25.8072
25.9195
26.0309
26.1416
26.2515
26.3606
26.4689
26.5764
26.6831
26.789
26.8941
26.9983
27.1017
27.2042
27.3059
27.4068
27.5068
27.6059
27.7042
27.8016
27.8982
27.9938
28.0886
28.1825
28.2755
28.3676
28.4588
28.5492
28.6386
28.7272
28.8148
28.9016
28.9874
29.0723
29.1564
29.2395
29.3217
29.403
29.4834
29.5629
29.6415
29.7192
29.7959
29.8718
29.9467
30.0208
30.0939
30.1661
30.2373
30.3077
30.3772
30.4457
30.5134
30.5801
30.6459
30.7108
30.7749
30.8379
30.9001
30.9614
31.0218
31.0813
31.1398
31.1975
31.2543
31.3101
31.3651
31.4191
31.4723
31.5246
31.5759
31.6264
31.676
31.7246
31.7724
31.8193
31.8653
31.9105
31.9547
31.998
32.0405
32.082
32.1227
32.1625
32.2015
32.2395
32.2766
32.3129
32.3483
32.3828
32.4165
32.4493
32.4812
32.5122
32.5423
32.5716
32.6
32.6275
32.6542
32.68
32.7049
32.729
32.7522
32.7745
32.796
32.8166
32.8363
32.8552
32.8732
32.8904
32.9067
32.9221
32.9367
32.9504
32.9632
32.9752
32.9864
32.9966
33.006
33.0146
33.0223
33.0292
33.0352
33.0403
33.0446
33.048
33.0506
33.0523
33.0531
23.3944
23.3826
23.3589
23.3236
23.2771
23.2197
23.1518
23.0741
22.9869
22.8909
22.7867
22.6749
22.556
22.4307
22.2995
22.1629
22.0216
21.8759
21.7264
21.5736
21.4177
21.2592
21.0986
20.9361
20.772
20.6067
20.4404
20.2735
20.1062
19.9387
19.7713
19.6042
19.4377
19.2718
19.107
18.9432
18.7808
18.6199
18.4606
18.3032
18.1478
17.9946
17.8436
17.6951
17.5492
17.4059
17.2656
17.1281
16.9937
16.8625
16.7345
16.6099
16.4888
16.3712
16.2572
16.1468
16.0402
15.9374
15.8385
15.7435
15.6525
15.5654
15.4824
15.4035
15.3287
15.258
15.1914
15.129
15.0708
15.0167
14.9668
14.9211
14.8795
14.8421
14.8088
14.7797
14.7546
14.7337
14.7168
14.7039
14.6951
14.6901
14.6892
14.6921
14.6988
14.7094
14.7237
14.7417
14.7634
14.7886
14.8175
14.8498
14.8856
14.9247
14.9672
15.0129
15.0618
15.1139
15.1691
15.2272
15.2883
15.3523
15.4191
15.4887
15.5609
15.6358
15.7132
15.7931
15.8754
15.9601
16.0471
16.1362
16.2276
16.321
16.4164
16.5138
16.6131
16.7142
16.817
16.9216
17.0278
17.1355
17.2448
17.3555
17.4676
17.5811
17.6958
17.8117
17.9288
18.047
18.1662
18.2864
18.4076
18.5296
18.6525
18.7762
18.9005
19.0256
19.1513
19.2776
19.4044
19.5317
19.6595
19.7877
19.9162
20.0451
20.1742
20.3036
20.4332
20.5629
20.6928
20.8228
20.9528
21.0829
21.2129
21.343
21.4729
21.6027
21.7324
21.8619
21.9912
22.1203
22.2492
22.3778
22.5061
22.634
22.7616
22.8889
23.0157
23.1421
23.2681
23.3937
23.5187
23.6433
23.7673
23.8908
24.0138
24.1362
24.258
24.3792
24.4998
24.6198
24.7391
24.8578
24.9758
25.0931
25.2098
25.3257
25.4409
25.5554
25.6691
25.7821
25.8943
26.0058
26.1165
26.2264
26.3356
26.4439
26.5514
26.6581
26.764
26.8691
26.9733
27.0767
27.1792
27.2809
27.3818
27.4818
27.5809
27.6792
27.7766
27.8731
27.9688
28.0635
28.1574
28.2504
28.3425
28.4337
28.524
28.6135
28.702
28.7896
28.8763
28.9621
29.0471
29.1311
29.2142
29.2964
29.3777
29.458
29.5375
29.6161
29.6937
29.7704
29.8462
29.9211
29.9951
30.0682
30.1404
30.2116
30.282
30.3514
30.4199
30.4876
30.5543
30.62
30.6849
30.7489
30.812
30.8741
30.9354
30.9957
31.0552
31.1137
31.1713
31.228
31.2839
31.3388
31.3928
31.446
31.4982
31.5495
31.6
31.6495
31.6982
31.7459
31.7928
31.8388
31.8839
31.9281
31.9714
32.0138
32.0553
32.096
32.1358
32.1747
32.2127
32.2498
32.2861
32.3214
32.3559
32.3896
32.4223
32.4542
32.4852
32.5153
32.5446
32.573
32.6005
32.6271
32.6529
32.6778
32.7018
32.725
32.7473
32.7688
32.7894
32.8091
32.828
32.846
32.8631
32.8794
32.8948
32.9094
32.9231
32.9359
32.9479
32.959
32.9693
32.9787
32.9872
32.9949
33.0018
33.0078
33.0129
33.0172
33.0206
33.0232
33.0249
33.0257
23.2848
23.2732
23.25
23.2156
23.17
23.1138
23.0472
22.9707
22.8849
22.7903
22.6875
22.5769
22.4593
22.3351
22.2049
22.0694
21.9289
21.784
21.6352
21.483
21.3277
21.1698
21.0097
20.8476
20.684
20.5191
20.3533
20.1868
20.0199
19.8529
19.6859
19.5192
19.3531
19.1877
19.0232
18.8599
18.6979
18.5375
18.3787
18.2217
18.0667
17.9139
17.7634
17.6154
17.4699
17.3272
17.1872
17.0502
16.9163
16.7856
16.6581
16.534
16.4133
16.2961
16.1826
16.0727
15.9666
15.8643
15.7659
15.6714
15.5808
15.4943
15.4117
15.3333
15.259
15.1888
15.1227
15.0608
15.003
14.9495
14.9001
14.8548
14.8138
14.7769
14.7441
14.7155
14.691
14.6705
14.6541
14.6418
14.6334
14.629
14.6285
14.632
14.6392
14.6503
14.6651
14.6836
14.7058
14.7316
14.7609
14.7937
14.83
14.8696
14.9126
14.9588
15.0082
15.0607
15.1164
15.175
15.2366
15.301
15.3683
15.4383
15.511
15.5863
15.6642
15.7445
15.8273
15.9124
15.9998
16.0894
16.1811
16.2749
16.3707
16.4685
16.5682
16.6697
16.7729
16.8778
16.9844
17.0925
17.2022
17.3132
17.4257
17.5395
17.6545
17.7707
17.8881
18.0066
18.1262
18.2467
18.3681
18.4905
18.6136
18.7375
18.8622
18.9875
19.1134
19.24
19.367
19.4946
19.6226
19.751
19.8797
20.0088
20.1381
20.2677
20.3975
20.5274
20.6575
20.7877
20.9179
21.0481
21.1783
21.3084
21.4385
21.5685
21.6983
21.8279
21.9574
22.0866
22.2156
22.3443
22.4727
22.6007