/*--------------------------------*- C++ -*----------------------------------*\
| =========                 |                                                 |
| \\      /  F ield         | OpenFOAM: The Open Source CFD Toolbox           |
|  \\    /   O peration     | Version:  2212                                  |
|   \\  /    A nd           | Website:  www.openfoam.com                      |
|    \\/     M anipulation  |                                                 |
\*---------------------------------------------------------------------------*/
FoamFile
{
    version     2.0;
    format      ascii;
    arch        "LSB;label=32;scalar=64";
    class       volScalarField;
    location    "380";
    object      p_rgh;
}
// * * * * * * * * * * * * * * * * * * * * * * * * * * * * * * * * * * * * * //

dimensions      [1 -1 -2 0 0 0 0];

internalField   nonuniform List<scalar> 
204800
(
23.9988
23.9861
23.9616
23.9254
23.8777
23.8191
23.7499
23.6707
23.5819
23.4842
23.3782
23.2645
23.1437
23.0164
22.8831
22.7446
22.6012
22.4535
22.3019
22.1469
21.9889
21.8283
21.6653
21.5005
21.334
21.1662
20.9974
20.8279
20.6578
20.4876
20.3173
20.1473
19.9778
19.809
19.6411
19.4743
19.3088
19.1448
18.9824
18.8218
18.6633
18.5069
18.3528
18.2011
18.052
17.9056
17.7621
17.6215
17.4839
17.3496
17.2185
17.0908
16.9665
16.8457
16.7286
16.6152
16.5055
16.3996
16.2977
16.1996
16.1055
16.0154
15.9294
15.8475
15.7696
15.696
15.6264
15.561
15.4999
15.4429
15.39
15.3414
15.297
15.2567
15.2206
15.1886
15.1607
15.137
15.1173
15.1017
15.0901
15.0825
15.0788
15.0791
15.0832
15.0912
15.1029
15.1183
15.1375
15.1603
15.1866
15.2165
15.2498
15.2866
15.3267
15.3701
15.4168
15.4666
15.5196
15.5755
15.6345
15.6964
15.7611
15.8287
15.8989
15.9718
16.0473
16.1253
16.2058
16.2887
16.3739
16.4613
16.551
16.6427
16.7366
16.8324
16.9301
17.0298
17.1312
17.2343
17.3392
17.4456
17.5536
17.6631
17.774
17.8863
17.9999
18.1148
18.2308
18.348
18.4663
18.5856
18.7058
18.827
18.9491
19.072
19.1957
19.32
19.4451
19.5707
19.697
19.8237
19.951
20.0787
20.2068
20.3353
20.464
20.5931
20.7223
20.8518
20.9814
21.1112
21.241
21.3709
21.5008
21.6307
21.7606
21.8904
22.02
22.1495
22.2789
22.408
22.537
22.6656
22.794
22.9221
23.0499
23.1773
23.3044
23.431
23.5573
23.6831
23.8084
23.9332
24.0576
24.1814
24.3048
24.4275
24.5497
24.6713
24.7923
24.9127
25.0325
25.1516
25.27
25.3878
25.5049
25.6213
25.737
25.852
25.9663
26.0798
26.1926
26.3046
26.4158
26.5263
26.636
26.7449
26.853
26.9603
27.0668
27.1724
27.2772
27.3812
27.4844
27.5867
27.6882
27.7888
27.8885
27.9874
28.0854
28.1825
28.2788
28.3742
28.4687
28.5623
28.655
28.7469
28.8378
28.9279
29.017
29.1052
29.1926
29.279
29.3645
29.4492
29.5329
29.6157
29.6976
29.7785
29.8586
29.9378
30.016
30.0933
30.1697
30.2452
30.3198
30.3934
30.4662
30.538
30.6089
30.6789
30.7479
30.8161
30.8833
30.9496
31.0151
31.0796
31.1431
31.2058
31.2676
31.3284
31.3883
31.4473
31.5055
31.5627
31.619
31.6743
31.7288
31.7824
31.8351
31.8869
31.9377
31.9877
32.0368
32.0849
32.1322
32.1786
32.224
32.2686
32.3123
32.3551
32.397
32.438
32.4781
32.5174
32.5557
32.5932
32.6297
32.6654
32.7002
32.7341
32.7672
32.7993
32.8306
32.861
32.8905
32.9191
32.9469
32.9738
32.9998
33.0249
33.0492
33.0726
33.0951
33.1167
33.1375
33.1574
33.1764
33.1946
33.2119
33.2283
33.2438
33.2585
33.2724
33.2853
33.2974
33.3086
33.319
33.3285
33.3371
33.3449
33.3518
33.3578
33.363
33.3673
33.3708
33.3734
33.3751
33.3759
23.99
23.9766
23.9502
23.9113
23.8604
23.7981
23.7251
23.6421
23.5498
23.4488
23.3399
23.2238
23.1009
22.972
22.8375
22.698
22.554
22.4058
22.254
22.0989
21.9408
21.7803
21.6175
21.4529
21.2866
21.1191
20.9506
20.7814
20.6117
20.4417
20.2718
20.1022
19.933
19.7645
19.597
19.4305
19.2653
19.1016
18.9396
18.7794
18.6212
18.4651
18.3113
18.16
18.0112
17.8651
17.7219
17.5816
17.4444
17.3103
17.1795
17.052
16.928
16.8075
16.6907
16.5775
16.4681
16.3624
16.2607
16.1628
16.069
15.9791
15.8933
15.8115
15.7339
15.6604
15.591
15.5258
15.4648
15.4079
15.3553
15.3068
15.2624
15.2223
15.1863
15.1544
15.1267
15.103
15.0834
15.0679
15.0563
15.0488
15.0452
15.0455
15.0496
15.0576
15.0693
15.0848
15.104
15.1267
15.1531
15.183
15.2163
15.253
15.2931
15.3365
15.3831
15.4329
15.4858
15.5417
15.6006
15.6624
15.727
15.7945
15.8646
15.9375
16.0129
16.0908
16.1711
16.2539
16.339
16.4263
16.5158
16.6074
16.7011
16.7968
16.8944
16.9939
17.0951
17.1981
17.3028
17.4091
17.5169
17.6262
17.737
17.8491
17.9625
18.0772
18.193
18.31
18.4281
18.5472
18.6673
18.7883
18.9102
19.0328
19.1563
19.2804
19.4053
19.5307
19.6568
19.7833
19.9104
20.0378
20.1657
20.2939
20.4225
20.5513
20.6804
20.8096
20.939
21.0685
21.1982
21.3278
21.4575
21.5872
21.7168
21.8463
21.9758
22.1051
22.2342
22.3631
22.4918
22.6202
22.7484
22.8763
23.0038
23.131
23.2578
23.3843
23.5103
23.6358
23.7609
23.8856
24.0097
24.1333
24.2564
24.3789
24.5009
24.6223
24.7431
24.8632
24.9828
25.1017
25.2199
25.3375
25.4544
25.5706
25.686
25.8008
25.9149
26.0282
26.1407
26.2526
26.3636
26.4739
26.5833
26.692
26.7999
26.907
27.0133
27.1188
27.2234
27.3272
27.4301
27.5323
27.6335
27.7339
27.8335
27.9322
28.03
28.127
28.2231
28.3183
28.4126
28.506
28.5986
28.6902
28.781
28.8709
28.9599
29.0479
29.1351
29.2214
29.3067
29.3912
29.4748
29.5574
29.6391
29.72
29.7999
29.8789
29.9569
30.0341
30.1104
30.1857
30.2601
30.3336
30.4062
30.4779
30.5487
30.6185
30.6875
30.7555
30.8226
30.8888
30.9541
31.0185
31.0819
31.1445
31.2061
31.2668
31.3266
31.3855
31.4435
31.5006
31.5568
31.6121
31.6665
31.72
31.7725
31.8242
31.875
31.9248
31.9738
32.0219
32.0691
32.1153
32.1607
32.2052
32.2488
32.2915
32.3334
32.3743
32.4143
32.4535
32.4918
32.5291
32.5656
32.6013
32.636
32.6698
32.7028
32.7349
32.7661
32.7964
32.8259
32.8545
32.8822
32.909
32.935
32.96
32.9843
33.0076
33.0301
33.0517
33.0724
33.0923
33.1112
33.1294
33.1466
33.163
33.1785
33.1932
33.207
33.2199
33.232
33.2432
33.2535
33.263
33.2716
33.2794
33.2863
33.2923
33.2975
33.3018
33.3052
33.3078
33.3095
33.3104
23.9658
23.9526
23.9265
23.8879
23.8374
23.7756
23.703
23.6205
23.5285
23.4279
23.3193
23.2033
23.0807
22.952
22.8177
22.6783
22.5343
22.3863
22.2345
22.0795
21.9215
21.761
21.5983
21.4337
21.2676
21.1001
20.9317
20.7625
20.5929
20.4231
20.2532
20.0837
19.9146
19.7462
19.5788
19.4124
19.2473
19.0837
18.9218
18.7617
18.6036
18.4476
18.2939
18.1427
17.994
17.848
17.7049
17.5647
17.4276
17.2936
17.1629
17.0355
16.9116
16.7913
16.6745
16.5614
16.4521
16.3466
16.2449
16.1472
16.0534
15.9637
15.8779
15.7963
15.7188
15.6454
15.5761
15.511
15.4501
15.3933
15.3407
15.2923
15.2481
15.208
15.1721
15.1404
15.1127
15.0891
15.0697
15.0542
15.0428
15.0353
15.0318
15.0322
15.0364
15.0445
15.0563
15.0719
15.0911
15.114
15.1404
15.1704
15.2038
15.2406
15.2808
15.3242
15.3709
15.4208
15.4737
15.5297
15.5887
15.6506
15.7153
15.7828
15.8531
15.9259
16.0014
16.0794
16.1598
16.2426
16.3278
16.4152
16.5047
16.5964
16.6902
16.7859
16.8836
16.9831
17.0844
17.1875
17.2922
17.3985
17.5064
17.6158
17.7265
17.8387
17.9522
18.0669
18.1828
18.2998
18.4179
18.5371
18.6572
18.7782
18.9001
19.0228
19.1463
19.2705
19.3953
19.5208
19.6469
19.7734
19.9005
20.028
20.1559
20.2841
20.4127
20.5415
20.6706
20.7999
20.9293
21.0588
21.1884
21.3181
21.4478
21.5775
21.7071
21.8367
21.9661
22.0954
22.2245
22.3534
22.4821
22.6106
22.7388
22.8666
22.9942
23.1213
23.2482
23.3746
23.5006
23.6261
23.7512
23.8759
24
24.1236
24.2467
24.3692
24.4911
24.6125
24.7333
24.8534
24.973
25.0918
25.2101
25.3276
25.4445
25.5607
25.6762
25.7909
25.905
26.0183
26.1308
26.2426
26.3536
26.4639
26.5733
26.682
26.7899
26.8969
27.0032
27.1086
27.2133
27.317
27.42
27.5221
27.6233
27.7237
27.8233
27.9219
28.0197
28.1167
28.2127
28.3079
28.4022
28.4956
28.5882
28.6798
28.7706
28.8604
28.9494
29.0374
29.1246
29.2108
29.2962
29.3806
29.4641
29.5468
29.6285
29.7093
29.7892
29.8681
29.9462
30.0234
30.0996
30.1749
30.2493
30.3228
30.3954
30.4671
30.5378
30.6076
30.6766
30.7446
30.8116
30.8778
30.9431
31.0074
31.0709
31.1334
31.195
31.2557
31.3155
31.3744
31.4324
31.4895
31.5456
31.6009
31.6553
31.7087
31.7613
31.8129
31.8637
31.9136
31.9625
32.0106
32.0577
32.104
32.1494
32.1939
32.2374
32.2801
32.322
32.3629
32.4029
32.442
32.4803
32.5177
32.5542
32.5898
32.6245
32.6583
32.6913
32.7234
32.7546
32.7849
32.8143
32.8429
32.8706
32.8974
32.9234
32.9484
32.9726
32.996
33.0184
33.04
33.0608
33.0806
33.0996
33.1177
33.135
33.1513
33.1669
33.1815
33.1953
33.2082
33.2203
33.2315
33.2418
33.2513
33.2599
33.2677
33.2746
33.2806
33.2858
33.2901
33.2935
33.2961
33.2978
33.2987
23.9306
23.9171
23.8903
23.8508
23.7991
23.7358
23.6617
23.5775
23.484
23.3819
23.2719
23.1548
23.0311
22.9015
22.7665
22.6266
22.4822
22.3339
22.1819
22.0268
21.8688
21.7084
21.5458
21.3814
21.2154
21.0482
20.88
20.7111
20.5418
20.3723
20.2027
20.0335
19.8647
19.6967
19.5296
19.3635
19.1988
19.0355
18.8739
18.7141
18.5564
18.4007
18.2474
18.0964
17.9481
17.8024
17.6596
17.5197
17.3829
17.2493
17.1188
16.9918
16.8682
16.7481
16.6316
16.5188
16.4098
16.3045
16.2031
16.1057
16.0122
15.9226
15.8372
15.7558
15.6785
15.6053
15.5362
15.4714
15.4106
15.3541
15.3017
15.2535
15.2095
15.1696
15.1339
15.1023
15.0748
15.0514
15.0321
15.0168
15.0055
14.9982
14.9948
14.9954
14.9997
15.0079
15.0199
15.0355
15.0549
15.0779
15.1044
15.1344
15.1679
15.2049
15.2451
15.2886
15.3354
15.3853
15.4383
15.4944
15.5534
15.6153
15.6801
15.7476
15.8179
15.8908
15.9663
16.0443
16.1247
16.2075
16.2926
16.38
16.4696
16.5613
16.655
16.7507
16.8483
16.9478
17.0491
17.1521
17.2568
17.3631
17.4709
17.5802
17.691
17.803
17.9164
18.0311
18.1469
18.2639
18.3819
18.501
18.621
18.7419
18.8637
18.9864
19.1097
19.2338
19.3586
19.484
19.6099
19.7364
19.8633
19.9907
20.1185
20.2466
20.3751
20.5038
20.6327
20.7619
20.8912
21.0206
21.1501
21.2796
21.4092
21.5387
21.6682
21.7976
21.9269
22.0561
22.1851
22.3138
22.4424
22.5707
22.6987
22.8264
22.9538
23.0809
23.2075
23.3338
23.4597
23.5851
23.71
23.8345
23.9585
24.0819
24.2049
24.3272
24.449
24.5702
24.6909
24.8109
24.9302
25.049
25.1671
25.2845
25.4012
25.5172
25.6325
25.7471
25.861
25.9742
26.0866
26.1982
26.3091
26.4192
26.5285
26.637
26.7448
26.8517
26.9578
27.0631
27.1675
27.2712
27.374
27.4759
27.577
27.6773
27.7767
27.8752
27.9729
28.0697
28.1656
28.2607
28.3548
28.4481
28.5405
28.632
28.7226
28.8124
28.9012
28.9891
29.0761
29.1623
29.2475
29.3318
29.4152
29.4977
29.5793
29.66
29.7397
29.8186
29.8965
29.9736
30.0497
30.1249
30.1992
30.2726
30.345
30.4166
30.4872
30.557
30.6258
30.6937
30.7607
30.8267
30.8919
30.9561
31.0195
31.0819
31.1434
31.2041
31.2638
31.3226
31.3805
31.4374
31.4935
31.5487
31.603
31.6563
31.7088
31.7604
31.8111
31.8608
31.9097
31.9577
32.0048
32.051
32.0963
32.1407
32.1842
32.2269
32.2686
32.3094
32.3494
32.3885
32.4267
32.464
32.5004
32.536
32.5706
32.6044
32.6373
32.6694
32.7005
32.7308
32.7602
32.7887
32.8164
32.8431
32.869
32.8941
32.9182
32.9415
32.964
32.9855
33.0062
33.026
33.045
33.0631
33.0803
33.0967
33.1121
33.1268
33.1405
33.1535
33.1655
33.1767
33.187
33.1965
33.2051
33.2128
33.2197
33.2257
33.2308
33.2351
33.2386
33.2412
33.2429
33.2437
23.8846
23.8714
23.8451
23.8063
23.7554
23.693
23.6197
23.5364
23.4437
23.3423
23.233
23.1165
22.9934
22.8642
22.7295
22.5899
22.4458
22.2977
22.1459
21.9909
21.8331
21.6728
21.5103
21.346
21.1802
21.0131
20.8451
20.6763
20.5071
20.3378
20.1684
19.9993
19.8307
19.6629
19.4959
19.33
19.1655
19.0024
18.841
18.6814
18.5238
18.3683
18.2151
18.0644
17.9163
17.7708
17.6282
17.4885
17.3518
17.2184
17.0881
16.9613
16.8379
16.718
16.6017
16.4891
16.3802
16.2752
16.174
16.0767
15.9834
15.894
15.8088
15.7275
15.6504
15.5774
15.5086
15.4439
15.3834
15.327
15.2748
15.2268
15.183
15.1433
15.1078
15.0764
15.0491
15.0259
15.0067
14.9916
14.9805
14.9734
14.9702
14.9709
14.9755
14.9838
14.996
15.0118
15.0313
15.0545
15.0812
15.1114
15.1451
15.1822
15.2226
15.2663
15.3132
15.3633
15.4165
15.4727
15.5319
15.5939
15.6589
15.7266
15.797
15.87
15.9457
16.0238
16.1044
16.1873
16.2726
16.3601
16.4498
16.5416
16.6355
16.7313
16.8291
16.9287
17.0301
17.1332
17.238
17.3444
17.4524
17.5618
17.6726
17.7848
17.8983
18.013
18.129
18.246
18.3641
18.4833
18.6034
18.7244
18.8463
18.969
19.0925
19.2166
19.3414
19.4669
19.5929
19.7194
19.8464
19.9739
20.1017
20.2299
20.3584
20.4872
20.6162
20.7453
20.8747
21.0041
21.1337
21.2632
21.3928
21.5224
21.6519
21.7814
21.9107
22.0399
22.1689
22.2977
22.4262
22.5546
22.6826
22.8103
22.9377
23.0648
23.1915
23.3178
23.4436
23.569
23.694
23.8185
23.9424
24.0659
24.1888
24.3112
24.433
24.5542
24.6748
24.7948
24.9142
25.0329
25.151
25.2684
25.3851
25.5011
25.6164
25.731
25.8449
25.958
26.0704
26.182
26.2928
26.4029
26.5122
26.6207
26.7284
26.8353
26.9414
27.0467
27.1511
27.2548
27.3575
27.4595
27.5605
27.6608
27.7601
27.8586
27.9563
28.0531
28.149
28.244
28.3381
28.4314
28.5237
28.6152
28.7058
28.7955
28.8843
28.9722
29.0592
29.1453
29.2305
29.3148
29.3981
29.4806
29.5622
29.6428
29.7226
29.8014
29.8793
29.9563
30.0324
30.1076
30.1818
30.2552
30.3276
30.3992
30.4698
30.5395
30.6082
30.6761
30.7431
30.8091
30.8743
30.9385
31.0018
31.0642
31.1257
31.1863
31.246
31.3047
31.3626
31.4196
31.4756
31.5308
31.585
31.6384
31.6908
31.7424
31.793
31.8428
31.8916
31.9396
31.9867
32.0328
32.0781
32.1225
32.166
32.2086
32.2503
32.2912
32.3311
32.3702
32.4083
32.4456
32.482
32.5176
32.5522
32.586
32.6189
32.6509
32.682
32.7123
32.7417
32.7702
32.7978
32.8246
32.8505
32.8755
32.8996
32.9229
32.9453
32.9669
32.9876
33.0074
33.0263
33.0444
33.0616
33.078
33.0935
33.1081
33.1218
33.1347
33.1468
33.1579
33.1683
33.1777
33.1863
33.194
33.2009
33.2069
33.2121
33.2164
33.2198
33.2224
33.2241
33.225
23.8276
23.8144
23.7881
23.7493
23.6982
23.6356
23.5621
23.4785
23.3855
23.2839
23.1743
23.0576
22.9342
22.8048
22.67
22.5302
22.386
22.2378
22.086
21.9311
21.7734
21.6132
21.4509
21.2867
21.1211
20.9543
20.7865
20.618
20.4491
20.28
20.1109
19.9421
19.7739
19.6063
19.4397
19.2742
19.11
18.9472
18.7861
18.6269
18.4696
18.3145
18.1617
18.0113
17.8635
17.7184
17.5761
17.4367
17.3004
17.1673
17.0374
16.9109
16.7878
16.6682
16.5522
16.4399
16.3314
16.2267
16.1258
16.0288
15.9358
15.8468
15.7618
15.6809
15.604
15.5313
15.4628
15.3984
15.3381
15.2821
15.2301
15.1824
15.1388
15.0994
15.0641
15.033
15.0059
14.983
14.9641
14.9492
14.9384
14.9315
14.9285
14.9294
14.9342
14.9428
14.9552
14.9712
14.991
15.0143
15.0412
15.0716
15.1055
15.1428
15.1834
15.2272
15.2743
15.3246
15.3779
15.4343
15.4936
15.5559
15.6209
15.6888
15.7593
15.8325
15.9083
15.9865
16.0672
16.1503
16.2357
16.3233
16.4131
16.505
16.599
16.6949
16.7927
16.8924
16.9939
17.0971
17.202
17.3084
17.4164
17.5259
17.6368
17.749
17.8625
17.9773
18.0933
18.2104
18.3285
18.4477
18.5678
18.6889
18.8108
18.9335
19.0569
19.1811
19.3059
19.4313
19.5573
19.6839
19.8109
19.9383
20.0661
20.1943
20.3227
20.4515
20.5804
20.7096
20.8388
20.9683
21.0977
21.2273
21.3568
21.4863
21.6158
21.7452
21.8744
22.0036
22.1325
22.2612
22.3898
22.518
22.646
22.7736
22.901
23.0279
23.1545
23.2807
23.4065
23.5318
23.6567
23.7811
23.905
24.0284
24.1512
24.2735
24.3952
24.5163
24.6368
24.7567
24.876
24.9946
25.1126
25.2299
25.3465
25.4624
25.5776
25.6921
25.8059
25.9189
26.0312
26.1427
26.2535
26.3635
26.4726
26.5811
26.6887
26.7955
26.9014
27.0066
27.1109
27.2145
27.3171
27.4189
27.5199
27.6201
27.7193
27.8177
27.9153
28.0119
28.1077
28.2026
28.2967
28.3898
28.4821
28.5735
28.664
28.7536
28.8423
28.9301
29.017
29.1029
29.188
29.2722
29.3555
29.4379
29.5193
29.5999
29.6796
29.7583
29.8361
29.913
29.989
30.0641
30.1383
30.2115
30.2839
30.3553
30.4259
30.4955
30.5642
30.632
30.6988
30.7648
30.8298
30.894
30.9572
31.0195
31.081
31.1415
31.2011
31.2598
31.3176
31.3745
31.4304
31.4855
31.5397
31.593
31.6454
31.6968
31.7474
31.7971
31.8459
31.8938
31.9408
31.9869
32.0321
32.0765
32.1199
32.1625
32.2041
32.2449
32.2848
32.3238
32.3619
32.3992
32.4355
32.471
32.5056
32.5393
32.5722
32.6042
32.6352
32.6655
32.6948
32.7233
32.7509
32.7776
32.8035
32.8285
32.8526
32.8758
32.8982
32.9197
32.9404
32.9601
32.9791
32.9971
33.0143
33.0306
33.0461
33.0607
33.0745
33.0873
33.0994
33.1105
33.1208
33.1303
33.1388
33.1466
33.1534
33.1594
33.1646
33.1689
33.1723
33.1749
33.1766
33.1774
23.7622
23.7494
23.7237
23.6856
23.6355
23.5741
23.5017
23.4193
23.3275
23.227
23.1185
23.0026
22.88
22.7514
22.6171
22.4779
22.3341
22.1863
22.0348
21.8802
21.7227
21.5627
21.4006
21.2367
21.0713
20.9046
20.737
20.5688
20.4001
20.2312
20.0624
19.8938
19.7258
19.5585
19.3921
19.2268
19.0628
18.9003
18.7395
18.5805
18.4235
18.2687
18.1161
17.966
17.8184
17.6735
17.5315
17.3924
17.2564
17.1235
16.9939
16.8676
16.7448
16.6255
16.5098
16.3978
16.2895
16.185
16.0844
15.9877
15.895
15.8062
15.7215
15.6409
15.5644
15.4919
15.4236
15.3595
15.2995
15.2437
15.1921
15.1447
15.1014
15.0622
15.0272
14.9964
14.9696
14.9469
14.9283
14.9137
14.9031
14.8965
14.8938
14.895
14.9001
14.9089
14.9216
14.9379
14.9579
14.9815
15.0087
15.0394
15.0735
15.111
15.1519
15.196
15.2434
15.2939
15.3475
15.4041
15.4637
15.5262
15.5915
15.6596
15.7303
15.8038
15.8798
15.9582
16.0392
16.1225
16.2081
16.2959
16.3859
16.4781
16.5722
16.6683
16.7664
16.8663
16.968
17.0713
17.1764
17.283
17.3912
17.5008
17.6119
17.7243
17.838
17.9529
18.0691
18.1863
18.3046
18.4239
18.5442
18.6654
18.7874
18.9102
19.0338
19.1581
19.2831
19.4086
19.5347
19.6614
19.7885
19.916
20.0439
20.1722
20.3007
20.4296
20.5586
20.6878
20.8172
20.9467
21.0763
21.2059
21.3355
21.4651
21.5946
21.7241
21.8534
21.9825
22.1115
22.2403
22.3689
22.4972
22.6252
22.7529
22.8803
23.0073
23.1339
23.2601
23.3859
23.5113
23.6362
23.7606
23.8845
24.0079
24.1308
24.2531
24.3748
24.4959
24.6164
24.7363
24.8556
24.9743
25.0922
25.2095
25.3261
25.442
25.5573
25.6717
25.7855
25.8985
26.0108
26.1223
26.233
26.343
26.4522
26.5606
26.6682
26.775
26.8809
26.9861
27.0904
27.1939
27.2965
27.3983
27.4993
27.5994
27.6986
27.797
27.8945
27.9912
28.0869
28.1818
28.2758
28.369
28.4612
28.5526
28.643
28.7326
28.8212
28.909
28.9959
29.0818
29.1669
29.2511
29.3343
29.4166
29.4981
29.5786
29.6582
29.7369
29.8147
29.8916
29.9676
30.0426
30.1168
30.19
30.2623
30.3337
30.4042
30.4738
30.5424
30.6102
30.677
30.743
30.808
30.8721
30.9353
30.9976
31.059
31.1195
31.179
31.2377
31.2955
31.3523
31.4083
31.4633
31.5175
31.5707
31.6231
31.6745
31.7251
31.7748
31.8235
31.8714
31.9184
31.9645
32.0096
32.0539
32.0974
32.1399
32.1815
32.2223
32.2622
32.3011
32.3392
32.3765
32.4128
32.4483
32.4828
32.5165
32.5494
32.5813
32.6124
32.6426
32.6719
32.7004
32.728
32.7547
32.7805
32.8055
32.8296
32.8528
32.8752
32.8967
32.9173
32.9371
32.956
32.974
32.9912
33.0075
33.023
33.0376
33.0513
33.0642
33.0762
33.0874
33.0977
33.1071
33.1157
33.1234
33.1302
33.1362
33.1414
33.1457
33.1491
33.1517
33.1534
33.1542
23.6863
23.6736
23.6482
23.6106
23.5609
23.5
23.4282
23.3464
23.2551
23.1551
23.0471
22.9316
22.8094
22.6811
22.5471
22.4082
22.2646
22.117
21.9658
21.8114
21.6541
21.4943
21.3325
21.1688
21.0036
20.8372
20.6699
20.5019
20.3335
20.165
19.9965
19.8283
19.6606
19.4936
19.3276
19.1626
18.999
18.8369
18.6765
18.5178
18.3612
18.2067
18.0545
17.9048
17.7576
17.6131
17.4714
17.3327
17.1971
17.0646
16.9353
16.8094
16.687
16.568
16.4527
16.341
16.2331
16.129
16.0288
15.9324
15.84
15.7517
15.6673
15.587
15.5108
15.4388
15.3708
15.3071
15.2474
15.192
15.1407
15.0936
15.0506
15.0118
14.9772
14.9467
14.9202
14.8979
14.8796
14.8653
14.8551
14.8488
14.8464
14.8479
14.8533
14.8625
14.8754
14.8921
14.9124
14.9363
14.9638
14.9948
15.0292
15.067
15.1081
15.1526
15.2002
15.251
15.3048
15.3617
15.4215
15.4843
15.5498
15.6182
15.6892
15.7629
15.8391
15.9178
15.999
16.0825
16.1683
16.2564
16.3466
16.4389
16.5333
16.6296
16.7278
16.8279
16.9298
17.0333
17.1385
17.2454
17.3537
17.4635
17.5747
17.6872
17.8011
17.9162
18.0324
18.1498
18.2682
18.3876
18.508
18.6293
18.7515
18.8744
18.9981
19.1225
19.2475
19.3731
19.4993
19.626
19.7532
19.8808
20.0088
20.1371
20.2657
20.3946
20.5237
20.6529
20.7824
20.9119
21.0415
21.1711
21.3007
21.4303
21.5599
21.6894
21.8187
21.9479
22.0769
22.2057
22.3342
22.4625
22.5905
22.7182
22.8456
22.9726
23.0992
23.2254
23.3512
23.4765
23.6014
23.7257
23.8496
23.973
24.0958
24.218
24.3397
24.4608
24.5813
24.7012
24.8204
24.939
25.0569
25.1741
25.2907
25.4066
25.5217
25.6361
25.7498
25.8628
25.975
26.0865
26.1971
26.307
26.4162
26.5245
26.632
26.7387
26.8446
26.9497
27.054
27.1574
27.2599
27.3617
27.4626
27.5626
27.6618
27.7601
27.8575
27.9541
28.0498
28.1446
28.2385
28.3316
28.4237
28.515
28.6054
28.6949
28.7835
28.8712
28.958
29.0439
29.1288
29.2129
29.2961
29.3784
29.4597
29.5402
29.6197
29.6983
29.7761
29.8529
29.9288
30.0037
30.0778
30.151
30.2232
30.2946
30.365
30.4345
30.5031
30.5708
30.6375
30.7034
30.7684
30.8324
30.8955
30.9578
31.0191
31.0795
31.139
31.1976
31.2553
31.3121
31.368
31.423
31.4771
31.5303
31.5826
31.634
31.6845
31.7341
31.7828
31.8306
31.8775
31.9236
31.9687
32.013
32.0563
32.0988
32.1404
32.1811
32.2209
32.2599
32.2979
32.3351
32.3714
32.4068
32.4414
32.475
32.5078
32.5397
32.5708
32.6009
32.6302
32.6586
32.6862
32.7129
32.7387
32.7636
32.7877
32.8109
32.8332
32.8547
32.8753
32.8951
32.914
32.932
32.9491
32.9654
32.9809
32.9955
33.0092
33.022
33.034
33.0452
33.0554
33.0649
33.0734
33.0811
33.088
33.094
33.0991
33.1034
33.1068
33.1094
33.1111
33.112
23.6031
23.5907
23.5659
23.5291
23.4806
23.4209
23.3505
23.2701
23.1802
23.0816
22.9749
22.8606
22.7395
22.6121
22.4791
22.3408
22.1979
22.0509
21.9002
21.7462
21.5893
21.4299
21.2684
21.105
20.9401
20.774
20.607
20.4393
20.2711
20.1029
19.9347
19.7667
19.5993
19.4327
19.2669
19.1023
18.939
18.7772
18.6171
18.4588
18.3025
18.1483
17.9964
17.847
17.7001
17.556
17.4147
17.2763
17.141
17.0088
16.8799
16.7543
16.6322
16.5136
16.3986
16.2873
16.1798
16.076
15.9761
15.8801
15.7881
15.7
15.616
15.5361
15.4603
15.3886
15.321
15.2576
15.1983
15.1432
15.0923
15.0456
15.003
14.9646
14.9303
14.9001
14.874
14.8521
14.8341
14.8203
14.8104
14.8044
14.8025
14.8043
14.8101
14.8196
14.8329
14.8499
14.8706
14.8949
14.9227
14.9541
14.9888
15.027
15.0685
15.1133
15.1613
15.2124
15.2666
15.3238
15.384
15.4471
15.513
15.5816
15.653
15.727
15.8035
15.8826
15.964
16.0479
16.134
16.2224
16.3129
16.4055
16.5001
16.5968
16.6953
16.7956
16.8978
17.0016
17.1071
17.2141
17.3227
17.4328
17.5442
17.657
17.7711
17.8864
18.0029
18.1205
18.2391
18.3588
18.4794
18.6009
18.7232
18.8464
18.9702
19.0948
19.22
19.3458
19.4722
19.5991
19.7264
19.8542
19.9823
20.1108
20.2395
20.3685
20.4978
20.6272
20.7567
20.8864
21.0161
21.1458
21.2756
21.4053
21.5349
21.6645
21.7939
21.9232
22.0523
22.1812
22.3098
22.4382
22.5663
22.694
22.8215
22.9485
23.0752
23.2015
23.3273
23.4527
23.5776
23.7021
23.826
23.9494
24.0722
24.1945
24.3162
24.4374
24.5579
24.6778
24.797
24.9156
25.0336
25.1508
25.2674
25.3833
25.4985
25.6129
25.7266
25.8396
25.9518
26.0632
26.1739
26.2838
26.3929
26.5013
26.6088
26.7155
26.8214
26.9265
27.0307
27.1341
27.2367
27.3384
27.4393
27.5393
27.6384
27.7367
27.8341
27.9307
28.0264
28.1212
28.2151
28.3081
28.4002
28.4915
28.5818
28.6713
28.7599
28.8475
28.9343
29.0202
29.1051
29.1892
29.2723
29.3545
29.4359
29.5163
29.5958
29.6744
29.7521
29.8289
29.9047
29.9797
30.0537
30.1268
30.1991
30.2704
30.3407
30.4102
30.4788
30.5464
30.6132
30.679
30.7439
30.8079
30.871
30.9332
30.9945
31.0549
31.1144
31.173
31.2306
31.2874
31.3433
31.3982
31.4523
31.5054
31.5577
31.6091
31.6595
31.7091
31.7578
31.8056
31.8525
31.8985
31.9436
31.9878
32.0312
32.0736
32.1152
32.1559
32.1957
32.2346
32.2726
32.3098
32.346
32.3814
32.416
32.4496
32.4824
32.5143
32.5453
32.5754
32.6047
32.6331
32.6606
32.6873
32.7131
32.738
32.762
32.7852
32.8076
32.829
32.8496
32.8694
32.8882
32.9062
32.9234
32.9397
32.9551
32.9697
32.9834
32.9962
33.0082
33.0193
33.0296
33.039
33.0476
33.0553
33.0621
33.0681
33.0733
33.0775
33.081
33.0835
33.0852
33.0861
23.5099
23.4977
23.4734
23.4372
23.3895
23.3307
23.2614
23.182
23.0932
22.9956
22.8899
22.7766
22.6563
22.5297
22.3973
22.2597
22.1174
21.9709
21.8206
21.667
21.5105
21.3515
21.1903
21.0273
20.8627
20.697
20.5303
20.3629
20.1952
20.0272
19.8594
19.6918
19.5248
19.3585
19.1932
19.029
18.866
18.7046
18.5449
18.387
18.2311
18.0773
17.9259
17.7769
17.6304
17.4867
17.3458
17.2078
17.0729
16.9411
16.8126
16.6875
16.5658
16.4476
16.3331
16.2222
16.115
16.0117
15.9122
15.8166
15.725
15.6374
15.5539
15.4743
15.3989
15.3277
15.2605
15.1975
15.1387
15.084
15.0335
14.9872
14.945
14.907
14.8731
14.8434
14.8178
14.7962
14.7787
14.7652
14.7558
14.7503
14.7487
14.751
14.7571
14.7671
14.7808
14.7982
14.8193
14.844
14.8722
14.9039
14.9391
14.9777
15.0195
15.0647
15.1131
15.1646
15.2191
15.2767
15.3373
15.4007
15.467
15.536
15.6077
15.682
15.7589
15.8383
15.9201
16.0043
16.0907
16.1794
16.2702
16.3631
16.4581
16.555
16.6538
16.7544
16.8569
16.961
17.0667
17.174
17.2829
17.3932
17.5049
17.6179
17.7323
17.8478
17.9645
18.0823
18.2012
18.321
18.4418
18.5635
18.686
18.8094
18.9334
19.0582
19.1836
19.3095
19.4361
19.5631
19.6906
19.8185
19.9468
20.0754
20.2042
20.3334
20.4627
20.5923
20.7219
20.8517
20.9815
21.1113
21.2412
21.371
21.5007
21.6303
21.7598
21.8892
22.0183
22.1473
22.276
22.4044
22.5325
22.6604
22.7878
22.9149
23.0417
23.168
23.2938
23.4192
23.5442
23.6686
23.7926
23.916
24.0389
24.1612
24.2829
24.404
24.5245
24.6444
24.7637
24.8823
25.0002
25.1175
25.234
25.3499
25.465
25.5794
25.6931
25.8061
25.9183
26.0297
26.1403
26.2502
26.3593
26.4676
26.5751
26.6817
26.7876
26.8926
26.9968
27.1002
27.2027
27.3044
27.4052
27.5052
27.6043
27.7025
27.7999
27.8964
27.992
28.0868
28.1807
28.2736
28.3657
28.4569
28.5472
28.6366
28.7251
28.8127
28.8995
28.9853
29.0702
29.1542
29.2372
29.3194
29.4007
29.4811
29.5605
29.6391
29.7167
29.7934
29.8692
29.9441
30.0181
30.0912
30.1633
30.2346
30.3049
30.3743
30.4428
30.5104
30.5771
30.6429
30.7077
30.7717
30.8347
30.8969
30.9581
31.0185
31.0779
31.1364
31.194
31.2507
31.3065
31.3614
31.4155
31.4686
31.5208
31.5721
31.6225
31.6721
31.7207
31.7684
31.8153
31.8612
31.9063
31.9505
31.9938
32.0362
32.0777
32.1184
32.1581
32.197
32.235
32.2721
32.3084
32.3437
32.3782
32.4118
32.4445
32.4764
32.5074
32.5375
32.5667
32.5951
32.6226
32.6492
32.675
32.6999
32.7239
32.7471
32.7694
32.7908
32.8114
32.8311
32.85
32.868
32.8851
32.9014
32.9168
32.9313
32.945
32.9578
32.9698
32.9809
32.9912
33.0006
33.0092
33.0168
33.0237
33.0297
33.0348
33.0391
33.0425
33.0451
33.0468
33.0476
23.4096
23.3978
23.3741
23.3389
23.2923
23.2349
23.167
23.0892
23.002
22.906
22.8017
22.6898
22.5709
22.4455
22.3142
22.1776
22.0362
21.8905
21.7409
21.588
21.432
21.2735
21.1128
20.9502
20.786
20.6207
20.4543
20.2873
20.1199
19.9524
19.7849
19.6177
19.451
19.2851
19.1201
18.9563
18.7937
18.6327
18.4733
18.3158
18.1603
18.0069
17.8559
17.7072
17.5612
17.4178
17.2773
17.1397
17.0052
16.8739
16.7458
16.6211
16.4998
16.382
16.2679
16.1574
16.0507
15.9478
15.8487
15.7536
15.6624
15.5752
15.4921
15.413
15.338
15.2672
15.2005
15.1379
15.0795
15.0253
14.9753
14.9294
14.8877
14.8501
14.8167
14.7874
14.7622
14.7411
14.7241
14.7111
14.7021
14.697
14.6959
14.6987
14.7053
14.7157
14.7299
14.7477
14.7693
14.7944
14.8231
14.8553
14.8909
14.9299
14.9723
15.0179
15.0667
15.1186
15.1736
15.2317
15.2927
15.3565
15.4232
15.4927
15.5648
15.6395
15.7168
15.7966
15.8788
15.9634
16.0503
16.1393
16.2305
16.3238
16.4192
16.5165
16.6156
16.7166
16.8194
16.9239
17.03
17.1376
17.2468
17.3575
17.4695
17.5829
17.6975
17.8133
17.9303
18.0484
18.1676
18.2877
18.4088
18.5308
18.6536
18.7772
18.9015
19.0265
19.1521
19.2783
19.4051
19.5324
19.6601
19.7882
19.9167
20.0455
20.1746
20.3039
20.4335
20.5632
20.693
20.8229
20.9529
21.0829
21.2129
21.3429
21.4728
21.6026
21.7322
21.8617
21.991
22.1201
22.2489
22.3774
22.5057
22.6336
22.7612
22.8884
23.0152
23.1416
23.2675
23.393
23.5181
23.6426
23.7666
23.8901
24.013
24.1354
24.2572
24.3784
24.499
24.6189
24.7382
24.8568
24.9748
25.0921
25.2087
25.3246
25.4398
25.5542
25.668
25.7809
25.8931
26.0046
26.1153
26.2252
26.3343
26.4426
26.55
26.6567
26.7626
26.8676
26.9718
27.0752
27.1777
27.2794
27.3802
27.4802
27.5793
27.6775
27.7749
27.8714
27.967
28.0617
28.1556
28.2485
28.3406
28.4318
28.5221
28.6115
28.6999
28.7875
28.8742
28.96
29.0449
29.1289
29.2119
29.2941
29.3753
29.4557
29.5351
29.6136
29.6912
29.7679
29.8437
29.9185
29.9925
30.0655
30.1376
30.2089
30.2792
30.3485
30.417
30.4846
30.5512
30.617
30.6818
30.7458
30.8088
30.8709
30.9321
30.9924
31.0518
31.1103
31.1678
31.2245
31.2803
31.3352
31.3892
31.4423
31.4944
31.5457
31.5961
31.6456
31.6942
31.7419
31.7888
31.8347
31.8797
31.9239
31.9672
32.0095
32.051
32.0916
32.1314
32.1702
32.2082
32.2453
32.2815
32.3168
32.3513
32.3849
32.4176
32.4494
32.4804
32.5105
32.5397
32.5681
32.5955
32.6221
32.6479
32.6728
32.6968
32.7199
32.7422
32.7636
32.7842
32.8039
32.8227
32.8407
32.8578
32.8741
32.8895
32.904
32.9177
32.9305
32.9425
32.9536
32.9639
32.9733
32.9818
32.9895
32.9963
33.0023
33.0074
33.0117
33.0151
33.0177
33.0194
33.0202
23.3001
23.2885
23.2653
23.2309
23.1853
23.129
23.0624
22.9859
22.9
22.8054
22.7025
22.5919
22.4742
22.3499
22.2197
22.0841
21.9435
21.7986
21.6497
21.4974
21.3421
21.1841
21.0239
20.8618
20.6981
20.5331
20.3672
20.2007
20.0337
19.8665
19.6995
19.5327
19.3664
19.201
19.0364
18.873
18.7109
18.5503
18.3914
18.2343
18.0792
17.9263
17.7757
17.6275
17.4819
17.339
17.199
17.0619
16.9278
16.7969
16.6693
16.5451
16.4243
16.307
16.1933
16.0833
15.9771
15.8746
15.776
15.6814
15.5907
15.504
15.4213
15.3428
15.2683
15.1979
15.1317
15.0697
15.0118
14.9581
14.9085
14.8632
14.822
14.7849
14.752
14.7232
14.6985
14.678
14.6614
14.6489
14.6404
14.6359
14.6353
14.6385
14.6457
14.6566
14.6713
14.6896
14.7117
14.7373
14.7665
14.7992
14.8353
14.8748
14.9176
14.9637
15.013
15.0654
15.1209
15.1795
15.2409
15.3052
15.3724
15.4423
15.5149
15.5901
15.6678
15.748
15.8307
15.9157
16.0029
16.0924
16.1841
16.2778
16.3735
16.4712
16.5708
16.6721
16.7753
16.8801
16.9866
17.0946
17.2042
17.3151
17.4275
17.5412
17.6562
17.7723
17.8897
18.0081
18.1275
18.248
18.3693
18.4916
18.6147
18.7385
18.8631
18.9884
19.1142
19.2407
19.3677
19.4952
19.6231
19.7515
19.8802
20.0092
20.1385
20.268
20.3977
20.5276
20.6577
20.7878
20.9179
21.0481
21.1782
21.3084
21.4384
21.5683
21.6981
21.8277
21.9571
22.0863
22.2152
22.3439
22.4723
22.6003
22.728
22.8553
22.9822