/*--------------------------------*- C++ -*----------------------------------*\
| =========                 |                                                 |
| \\      /  F ield         | OpenFOAM: The Open Source CFD Toolbox           |
|  \\    /   O peration     | Version:  2212                                  |
|   \\  /    A nd           | Website:  www.openfoam.com                      |
|    \\/     M anipulation  |                                                 |
\*---------------------------------------------------------------------------*/
FoamFile
{
    version     2.0;
    format      ascii;
    arch        "LSB;label=32;scalar=64";
    class       surfaceScalarField;
    location    "380";
    object      phi;
}
// * * * * * * * * * * * * * * * * * * * * * * * * * * * * * * * * * * * * * //

dimensions      [1 0 -1 0 0 0 0];

oriented        oriented;

internalField   nonuniform List<scalar> 
408640
(
-2316.11
2314.74
-4615.71
2299.09
-6880.58
2264.35
-9094.95
2213.84
-11246.6
2151.14
-13327.2
2079.97
-15331.8
2004.08
-17259.1
1926.78
-19110.5
1850.81
-20889.2
1778.15
-22599.9
1710.11
-24247.8
1647.37
-25838.5
1590.12
-27377.2
1538.2
-28868.9
1491.22
-30318
1448.64
-31728.3
1409.86
-33103
1374.3
-34444.9
1341.41
-35756
1310.68
-37038.1
1281.68
-38292.5
1254.04
-39520.4
1227.47
-40722.5
1201.71
-41899.5
1176.58
-43051.8
1151.93
-44179.9
1127.65
-45283.9
1103.66
-46364.2
1079.9
-47420.9
1056.34
-48454.3
1032.95
-49464.4
1009.72
-50451.4
986.641
-51415.5
963.703
-52356.8
940.906
-53275.4
918.252
-54171.5
895.74
-55045.2
873.372
-55896.7
851.15
-56726.2
829.075
-57533.7
807.15
-58319.4
785.377
-59083.5
763.757
-59826.2
742.293
-60547.5
720.986
-61247.7
699.838
-61926.8
678.852
-62585.2
658.03
-63222.9
637.375
-63840.1
616.887
-64437
596.57
-65013.8
576.426
-65570.5
556.458
-66107.5
536.667
-66624.9
517.057
-67122.8
497.629
-67601.5
478.387
-68061.1
459.332
-68501.9
440.468
-68923.9
421.796
-69327.5
403.32
-69712.9
385.041
-70080.1
366.962
-70429.5
349.086
-70761.1
331.414
-71075.4
313.95
-71372.3
296.694
-71652.2
279.65
-71915.3
262.819
-72161.7
246.204
-72391.8
229.805
-72605.6
213.626
-72803.5
197.667
-72985.7
181.93
-73152.3
166.418
-73303.7
151.13
-73440
136.069
-73561.4
121.235
-73668.3
106.63
-73760.7
92.2542
-73839
78.1092
-73903.4
64.1953
-73954.1
50.5132
-73991.4
37.0634
-74015.4
23.8462
-74026.5
10.8618
-74024.8
-1.88945
-74010.5
-14.4077
-73984
-26.693
-73945.4
-38.7456
-73895
-50.5657
-73833
-62.1539
-73759.7
-73.5106
-73675.2
-84.6365
-73579.8
-95.5324
-73473.7
-106.199
-73357.2
-116.638
-73230.5
-126.849
-73093.8
-136.835
-72947.4
-146.595
-72791.4
-156.133
-72626
-165.448
-72451.6
-174.543
-72268.3
-183.42
-72076.3
-192.079
-71875.9
-200.523
-71667.3
-208.754
-71450.6
-216.773
-71226.1
-224.583
-70994
-232.185
-70754.5
-239.582
-70507.9
-246.776
-70254.2
-253.769
-69993.7
-260.563
-69726.6
-267.161
-69453.1
-273.566
-69173.4
-279.779
-68887.7
-285.802
-68596.1
-291.64
-68298.9
-297.294
-67996.2
-302.766
-67688.2
-308.06
-67375.1
-313.177
-67057
-318.122
-66734.2
-322.895
-66406.7
-327.501
-66074.8
-331.941
-65738.7
-336.219
-65398.4
-340.337
-65054.1
-344.299
-64706.1
-348.105
-64354.3
-351.761
-63999.1
-355.268
-63640.5
-358.629
-63278.7
-361.846
-62913.8
-364.924
-62546
-367.863
-62175.3
-370.668
-61802
-373.34
-61426.2
-375.884
-61047.9
-378.3
-60667.3
-380.593
-60284.6
-382.764
-59899.8
-384.816
-59513
-386.752
-59124.5
-388.575
-58734.2
-390.288
-58342.3
-391.892
-57948.9
-393.39
-57554.1
-394.785
-57158.1
-396.08
-56760.8
-397.277
-56362.4
-398.378
-55963
-399.385
-55562.7
-400.302
-55161.6
-401.131
-54759.7
-401.873
-54357.2
-402.532
-53954.1
-403.109
-53550.5
-403.607
-53146.4
-404.028
-52742.1
-404.374
-52337.4
-404.647
-51932.6
-404.85
-51527.6
-404.984
-51122.5
-405.052
-50717.4
-405.055
-50312.4
-404.996
-49907.5
-404.877
-49502.8
-404.699
-49098.3
-404.464
-48694.1
-404.175
-48290.3
-403.832
-47886.8
-403.439
-47483.8
-402.996
-47081.3
-402.506
-46679.3
-401.969
-46277.9
-401.388
-45877.1
-400.765
-45477
-400.1
-45077.6
-399.396
-44678.9
-398.654
-44281
-397.875
-43883.9
-397.061
-43487.7
-396.214
-43092.3
-395.335
-42697.8
-394.424
-42304.3
-393.484
-41911.8
-392.517
-41520.2
-391.522
-41129.7
-390.501
-40740.2
-389.457
-40351.8
-388.389
-39964.4
-387.299
-39578.2
-386.188
-39193.1
-385.058
-38809.2
-383.909
-38426.4
-382.742
-38044.8
-381.559
-37664.4
-380.36
-37285.2
-379.147
-36907.3
-377.921
-36530.5
-376.682
-36155.1
-375.431
-35780.8
-374.169
-35407.9
-372.897
-35036.2
-371.617
-34665.9
-370.328
-34296.8
-369.032
-33929
-367.729
-33562.5
-366.42
-33197.4
-365.107
-32833.5
-363.788
-32471
-362.467
-32109.8
-361.142
-31750
-359.815
-31391.4
-358.486
-31034.2
-357.156
-30678.3
-355.826
-30323.8
-354.496
-29970.6
-353.166
-29618.7
-351.838
-29268.1
-350.512
-28918.8
-349.188
-28570.9
-347.867
-28224.3
-346.55
-27879
-345.237
-27535
-343.927
-27192.3
-342.623
-26850.9
-341.324
-26510.8
-340.031
-26172
-338.744
-25834.5
-337.463
-25498.2
-336.189
-25163.2
-334.923
-24829.5
-333.664
-24497
-332.413
-24165.7
-331.171
-23835.7
-329.937
-23506.9
-328.713
-23179.3
-327.498
-22852.9
-326.292
-22527.8
-325.097
-22203.8
-323.911
-21880.9
-322.737
-21559.3
-321.572
-21238.8
-320.42
-20919.4
-319.278
-20601.2
-318.148
-20284
-317.029
-19968
-315.923
-19653.1
-314.829
-19339.3
-313.747
-19026.5
-312.678
-18714.8
-311.621
-18404.1
-310.578
-18094.4
-309.548
-17785.8
-308.531
-17478.2
-307.528
-17171.5
-306.538
-16865.8
-305.563
-16561.1
-304.601
-16257.4
-303.653
-15954.5
-302.72
-15652.6
-301.801
-15351.6
-300.897
-15051.5
-300.008
-14752.2
-299.133
-14453.8
-298.273
-14156.3
-297.428
-13859.6
-296.598
-13563.6
-295.784
-13268.5
-294.985
-12974.2
-294.201
-12680.6
-293.433
-12387.8
-292.681
-12095.8
-291.944
-11804.4
-291.223
-11513.8
-290.518
-11223.8
-289.829
-10934.5
-289.155
-10645.9
-288.498
-10357.9
-287.857
-10070.5
-287.233
-9783.75
-286.624
-9497.58
-286.032
-9211.98
-285.456
-8926.94
-284.897
-8642.44
-284.354
-8358.47
-283.828
-8075.01
-283.318
-7792.04
-282.825
-7509.54
-282.348
-7227.5
-281.889
-6945.91
-281.446
-6664.74
-281.019
-6383.98
-280.61
-6103.61
-280.217
-5823.62
-279.841
-5543.99
-279.483
-5264.69
-279.141
-4985.72
-278.816
-4707.06
-278.508
-4428.69
-278.217
-4150.59
-277.943
-3872.75
-277.687
-3595.15
-277.447
-3317.76
-277.225
-3040.59
-277.021
-2763.6
-276.833
-2486.77
-276.664
-2210.1
-276.513
-1933.57
-276.379
-1657.14
-276.264
-1380.82
-276.167
-1104.57
-276.089
-828.38
-276.029
-552.234
-275.987
-276.112
-275.963
-275.953
-2295.19
4609.44
-4575.24
4578.63
-6823.21
4511.8
-9024.34
4414.45
-11167
4293.28
-13242.9
4155.28
-15246.9
4007.51
-17177
3856.32
-19033.8
3706.99
-20819.6
3563.46
-22538.4
3428.37
-24194.8
3303.18
-25793.6
3188.43
-27339.9
3083.95
-28838.2
2989.08
-30292.9
2902.88
-31707.8
2824.27
-33086.1
2752.13
-34430.5
2685.4
-35743.4
2623.11
-37026.5
2564.4
-38281.4
2508.54
-39509.3
2454.91
-40711
2403.02
-41887.3
2352.47
-43038.7
2302.96
-44165.7
2254.24
-45268.6
2206.15
-46347.7
2158.57
-47403.1
2111.41
-48435.2
2064.61
-49444
2018.13
-50429.7
1971.97
-51392.4
1926.09
-52332.4
1880.51
-53249.7
1835.22
-54144.6
1790.21
-55017.1
1745.49
-55867.3
1701.06
-56695.6
1656.94
-57501.9
1613.11
-58286.4
1569.58
-59049.4
1526.36
-59790.9
1483.45
-60511.1
1440.86
-61210.2
1398.58
-61888.3
1356.63
-62545.6
1315
-63182.2
1273.71
-63798.4
1232.76
-64394.3
1192.14
-64970.1
1151.87
-65525.9
1111.95
-66061.9
1072.39
-66578.4
1033.19
-67075.4
994.351
-67553.2
955.884
-68011.9
917.793
-68451.8
880.082
-68873.1
842.757
-69275.9
805.822
-69660.4
769.282
-70026.8
733.142
-70375.4
697.407
-70706.4
662.081
-71019.8
627.169
-71316.1
592.676
-71595.3
558.604
-71857.7
524.96
-72103.5
491.745
-72332.9
458.965
-72546.1
426.623
-72743.4
394.722
-72925
363.266
-73091
332.256
-73241.8
301.697
-73377.6
271.591
-73498.5
241.94
-73604.8
212.746
-73696.8
184.011
-73774.6
155.738
-73838.5
127.926
-73888.8
100.578
-73925.6
73.6939
-73949.2
47.2752
-73959.9
21.3223
-73957.8
-4.16465
-73943.2
-29.1856
-73916.3
-53.7408
-73877.4
-77.8306
-73826.6
-101.456
-73764.3
-124.617
-73690.7
-147.315
-73605.9
-169.552
-73510.3
-191.329
-73404
-212.648
-73287.2
-233.511
-73160.3
-253.919
-73023.4
-273.876
-72876.7
-293.383
-72720.5
-312.444
-72555.1
-331.061
-72380.5
-349.238
-72197
-366.977
-72004.9
-384.282
-71804.4
-401.157
-71595.7
-417.605
-71378.9
-433.631
-71154.4
-449.237
-70922.2
-464.429
-70682.7
-479.21
-70436
-493.586
-70182.3
-507.559
-69921.8
-521.136
-69654.7
-534.32
-69381.2
-547.117
-69101.5
-559.531
-68815.8
-571.568
-68524.3
-583.232
-68227.2
-594.528
-67924.5
-605.462
-67616.6
-616.038
-67303.6
-626.263
-66985.6
-636.142
-66662.9
-645.679
-66335.6
-654.88
-66003.8
-663.751
-65667.8
-672.298
-65327.6
-680.525
-64983.5
-688.438
-64635.6
-696.043
-64284.1
-703.345
-63929.1
-710.35
-63570.7
-717.063
-63209
-723.49
-62844.4
-729.637
-62476.7
-735.508
-62106.3
-741.11
-61733.2
-746.448
-61357.6
-751.527
-60979.6
-756.353
-60599.3
-760.93
-60216.8
-765.266
-59832.3
-769.364
-59445.8
-773.23
-59057.5
-776.87
-58667.5
-780.288
-58275.9
-783.491
-57882.9
-786.482
-57488.4
-789.267
-57092.6
-791.851
-56695.7
-794.238
-56297.6
-796.435
-55898.6
-798.446
-55498.6
-800.275
-55097.8
-801.927
-54696.2
-803.407
-54294.1
-804.72
-53891.3
-805.87
-53488
-806.862
-53084.4
-807.699
-52680.3
-808.387
-52276
-808.93
-51871.5
-809.332
-51466.9
-809.597
-51062.2
-809.73
-50657.5
-809.733
-50252.9
-809.612
-49848.4
-809.371
-49444.1
-809.012
-49040
-808.54
-48636.2
-807.959
-48232.7
-807.272
-47829.7
-806.483
-47427
-805.595
-47024.9
-804.612
-46623.3
-803.537
-46222.3
-802.373
-45821.9
-801.124
-45422.2
-799.793
-45023.2
-798.383
-44624.9
-796.897
-44227.5
-795.339
-43830.8
-793.71
-43435
-792.014
-43040
-790.254
-42646
-788.432
-42252.9
-786.552
-41860.7
-784.615
-41469.6
-782.625
-41079.5
-780.583
-40690.4
-778.493
-40302.4
-776.357
-39915.5
-774.176
-39529.7
-771.954
-39145
-769.693
-38761.5
-767.395
-38379.2
-765.061
-37998
-762.695
-37618
-760.297
-37239.2
-757.871
-36861.7
-755.418
-36485.4
-752.939
-36110.4
-750.437
-35736.6
-747.914
-35364.1
-745.371
-34992.8
-742.81
-34622.9
-740.233
-34254.2
-737.641
-33886.9
-735.035
-33520.8
-732.418
-33156.1
-729.791
-32792.7
-727.155
-32430.6
-724.512
-32069.8
-721.863
-31710.3
-719.209
-31352.2
-716.552
-30995.4
-713.893
-30640
-711.233
-30285.8
-708.573
-29933
-705.915
-29581.5
-703.26
-29231.4
-700.608
-28882.5
-697.961
-28535
-695.32
-28188.8
-692.686
-27843.9
-690.06
-27500.4
-687.442
-27158.1
-684.834
-26817.1
-682.237
-26477.4
-679.651
-26139
-677.078
-25801.9
-674.517
-25466
-671.971
-25131.4
-669.439
-24798.1
-666.922
-24466
-664.422
-24135.2
-661.938
-23805.5
-659.472
-23477.2
-657.024
-23150
-654.594
-22824
-652.184
-22499.2
-649.794
-22175.6
-647.424
-21853.2
-645.075
-21531.9
-642.748
-21211.8
-640.443
-20892.8
-638.161
-20575
-635.901
-20258.3
-633.665
-19942.6
-631.454
-19628.1
-629.266
-19314.7
-627.103
-19002.3
-624.966
-18690.9
-622.854
-18380.6
-620.769
-18071.4
-618.709
-17763.1
-616.677
-17455.9
-614.671
-17149.6
-612.693
-16844.3
-610.742
-16540
-608.82
-16236.6
-606.925
-15934.2
-605.06
-15632.6
-603.223
-15332
-601.415
-15032.2
-599.637
-14733.4
-597.888
-14435.4
-596.169
-14138.2
-594.48
-13841.8
-592.822
-13546.3
-591.194
-13251.6
-589.596
-12957.6
-588.03
-12664.4
-586.494
-12372
-584.99
-12080.3
-583.517
-11789.3
-582.076
-11499
-580.666
-11209.4
-579.289
-10920.5
-577.943
-10632.2
-576.629
-10344.6
-575.348
-10057.6
-574.099
-9771.21
-572.883
-9485.4
-571.699
-9200.17
-570.548
-8915.49
-569.43
-8631.36
-568.345
-8347.75
-567.293
-8064.65
-566.274
-7782.04
-565.288
-7499.9
-564.336
-7218.23
-563.416
-6937
-562.531
-6656.19
-561.679
-6375.79
-560.86
-6095.78
-560.075
-5816.14
-559.324
-5536.87
-558.607
-5257.93
-557.924
-4979.32
-557.274
-4701.02
-556.659
-4423
-556.077
-4145.26
-555.53
-3867.77
-555.017
-3590.53
-554.538
-3313.5
-554.094
-3036.68
-553.685
-2760.05
-553.311
-2483.58
-552.972
-2207.26
-552.67
-1931.08
-552.403
-1655.02
-552.173
-1379.05
-551.979
-1103.15
-551.823
-827.32
-551.703
-551.529
-551.619
-275.762
-551.571
-551.556
-2272.24
6881.17
-4530.28
6836.17
-6759.01
6740
-8944.94
6599.85
-11077.1
6424.92
-13147.4
6224.99
-15150.5
6010.02
-17083.8
5789.02
-18947
5569.62
-20741.7
5357.58
-22470.8
5156.89
-24138
4969.89
-25747.7
4797.58
-27304.2
4639.95
-28811.9
4496.24
-30274.7
4365.23
-31696.4
4245.49
-33080.2
4135.47
-34428.9
4033.66
-35744.9
3938.68
-37030.2
3849.28
-38286.4
3764.35
-39514.9
3682.98
-40716.7
3604.41
-41892.6
3528.01
-43043.3
3453.3
-44169.4
3379.9
-45271.2
3307.53
-46349
3235.99
-47403.1
3165.14
-48433.8
3094.87
-49441.1
3025.13
-50425.4
2955.86
-51386.7
2887.05
-52325.3
2818.69
-53241.2
2750.76
-54134.6
2683.28
-55005.7
2616.23
-55854.7
2549.62
-56681.5
2483.45
-57486.5
2417.74
-58269.8
2352.48
-59031.4
2287.68
-59771.7
2223.35
-60490.6
2159.49
-61188.5
2096.1
-61865.4
2033.21
-62521.5
1970.8
-63157.1
1908.89
-63772.1
1847.49
-64366.9
1786.59
-64941.5
1726.22
-65496.3
1666.37
-66031.2
1607.05
-66546.6
1548.27
-67042.6
1490.04
-67519.4
1432.37
-67977.2
1375.26
-68416.1
1318.72
-68836.4
1262.76
-69238.2
1207.38
-69621.8
1152.6
-69987.4
1098.41
-70335.1
1044.83
-70665.1
991.87
-70977.7
939.527
-71273.1
887.811
-71551.5
836.728
-71813.1
786.286
-72058.1
736.488
-72286.7
687.343
-72499.2
638.853
-72695.7
591.026
-72876.5
543.865
-73041.9
497.375
-73191.9
451.56
-73327
406.425
-73447.2
361.972
-73552.9
318.204
-73644.2
275.126
-73721.4
232.738
-73784.7
191.044
-73834.4
150.045
-73870.6
109.743
-73893.7
70.1378
-73903.8
31.2315
-73901.2
-6.97588
-73886
-44.4844
-73858.6
-81.2942
-73819.2
-117.406
-73768
-152.821
-73705.3
-187.54
-73631.2
-221.565
-73546
-254.898
-73449.9
-287.541
-73343.2
-319.497
-73226.1
-350.769
-73098.8
-381.36
-72961.5
-411.273
-72814.5
-440.512
-72658
-469.082
-72492.2
-496.986
-72317.3
-524.23
-72133.6
-550.817
-71941.2
-576.754
-71740.5
-602.046
-71531.5
-626.698
-71314.5
-650.715
-71089.7
-674.105
-70857.4
-696.873
-70617.7
-719.025
-70370.8
-740.568
-70116.9
-761.509
-69856.3
-781.855
-69589.1
-801.612
-69315.5
-820.789
-69035.7
-839.391
-68749.9
-857.428
-68458.3
-874.905
-68161
-891.832
-67858.4
-908.215
-67550.4
-924.062
-67237.3
-939.383
-66919.4
-954.183
-66596.6
-968.472
-66269.3
-982.258
-65937.5
-995.549
-65601.5
-1008.35
-65261.4
-1020.68
-64917.4
-1032.53
-64569.5
-1043.92
-64218.1
-1054.86
-63863.1
-1065.36
-63504.8
-1075.41
-63143.3
-1085.04
-62778.7
-1094.24
-62411.2
-1103.04
-62040.9
-1111.43
-61668
-1119.42
-61292.5
-1127.03
-60914.6
-1134.25
-60534.4
-1141.11
-60152.1
-1147.6
-59767.8
-1153.73
-59381.5
-1159.52
-58993.4
-1164.97
-58603.6
-1170.09
-58212.3
-1174.88
-57819.4
-1179.36
-57425.1
-1183.52
-57029.6
-1187.39
-56632.9
-1190.96
-56235.1
-1194.25
-55836.3
-1197.25
-55436.6
-1199.99
-55036
-1202.46
-54634.8
-1204.67
-54232.9
-1206.63
-53830.4
-1208.35
-53427.4
-1209.83
-53024
-1211.08
-52620.3
-1212.1
-52216.3
-1212.91
-51812.1
-1213.51
-51407.8
-1213.9
-51003.4
-1214.09
-50599.1
-1214.09
-50194.8
-1213.9
-49790.6
-1213.53
-49386.6
-1212.99
-48982.8
-1212.28
-48579.4
-1211.4
-48176.3
-1210.36
-47773.6
-1209.18
-47371.3
-1207.84
-46969.5
-1206.36
-46568.3
-1204.74
-46167.7
-1202.99
-45767.6
-1201.12
-45368.3
-1199.12
-44969.7
-1197
-44571.8
-1194.77
-44174.6
-1192.43
-43778.4
-1189.98
-43382.9
-1187.43
-42988.3
-1184.79
-42594.7
-1182.06
-42202
-1179.23
-41810.2
-1176.32
-41419.5
-1173.34
-41029.8
-1170.27
-40641.1
-1167.14
-40253.5
-1163.93
-39867
-1160.66
-39481.6
-1157.32
-39097.3
-1153.93
-38714.2
-1150.48
-38332.2
-1146.98
-37951.5
-1143.43
-37571.9
-1139.83
-37193.5
-1136.19
-36816.4
-1132.51
-36440.5
-1128.79
-36065.8
-1125.04
-35692.5
-1121.25
-35320.4
-1117.44
-34949.5
-1113.6
-34580
-1109.73
-34211.7
-1105.84
-33844.8
-1101.93
-33479.2
-1098.01
-33114.8
-1094.07
-32751.8
-1090.11
-32390.1
-1086.15
-32029.8
-1082.17
-31670.7
-1078.19
-31313
-1074.21
-30956.6
-1070.22
-30601.6
-1066.23
-30247.9
-1062.24
-29895.5
-1058.26
-29544.4
-1054.27
-29194.6
-1050.3
-28846.2
-1046.33
-28499.1
-1042.37
-28153.3
-1038.42
-27808.8
-1034.48
-27465.6
-1030.55
-27123.8
-1026.64
-26783.2
-1022.75
-26443.9
-1018.87
-26105.9
-1015.01
-25769.2
-1011.17
-25433.7
-1007.35
-25099.5
-1003.55
-24766.6
-999.779
-24434.9
-996.029
-24104.5
-992.304
-23775.3
-988.606
-23447.3
-984.935
-23120.5
-981.292
-22794.9
-977.678
-22470.5
-974.094
-22147.3
-970.54
-21825.3
-967.018
-21504.4
-963.529
-21184.7
-960.072
-20866.1
-956.65
-20548.7
-953.262
-20232.3
-949.909
-19917.1
-946.593
-19603
-943.313
-19289.9
-940.07
-18977.9
-936.865
-18667
-933.699
-18357.1
-930.571
-18048.2
-927.483
-17740.3
-924.436
-17433.4
-921.428
-17127.6
-918.462
-16822.7
-915.538
-16518.7
-912.655
-16215.7
-909.815
-15913.7
-907.017
-15612.5
-904.263
-15312.2
-901.553
-15012.9
-898.887
-14714.4
-896.265
-14416.7
-893.687
-14119.9
-891.155
-13824
-888.669
-13528.8
-886.228
-13234.5
-883.832
-12940.9
-881.484
-12648.1
-879.182
-12356
-876.926
-12064.7
-874.718
-11774.1
-872.557
-11484.2
-870.444
-11194.9
-868.378
-10906.4
-866.36
-10618.5
-864.391
-10331.2
-862.47
-10044.6
-860.597
-9758.56
-858.774
-9473.12
-856.999
-9188.25
-855.273
-8903.94
-853.597
-8620.18
-851.97
-8336.93
-850.392
-8054.2
-848.865
-7771.95
-847.387
-7490.18
-845.959
-7208.87
-844.581
-6928
-843.253
-6647.56
-841.975
-6367.52
-840.748
-6087.87
-839.572
-5808.6
-838.445
-5529.68
-837.37
-5251.11
-836.345
-4972.86
-835.372
-4694.91
-834.449
-4417.26
-833.577
-4139.88
-832.756
-3862.75
-831.987
-3585.87
-831.27
-3309.2
-830.604
-3032.74
-829.99
-2756.46
-829.43
-2480.36
-828.922
-2204.4
-828.468
-1928.58
-828.068
-1652.87
-827.723
-1377.26
-827.433
-1101.72
-827.198
-826.248
-827.019
-550.814
-826.894
-275.403
-826.823
-826.8
-2242.39
9123.06
-4472.04
9065.31
-6675.9
8943.35
-8842.14
8765.55
-10960.7
8542.94
-13023.8
8287.47
-15025.8
8011.43
-16963.4
7726.07
-18835.4
7441.03
-20642.2
7163.77
-22385.5
6899.59
-24067.9
6651.8
-25692.9
6422.03
-27264.1
6210.61
-28785.3
6016.87
-30260.1
5839.55
-31692
5676.98
-33084.4
5527.34
-34439.9
5388.78
-35761.2
5259.57
-37050.5
5138.08
-38309.4
5022.9
-39539.6
4912.78
-40742.3
4806.7
-41918.5
4703.79
-43069
4603.37
-44194.4
4504.9
-45295.2
4407.96
-46371.9
4312.26
-47424.7
4217.56
-48453.9
4123.73
-49459.8
4030.64
-50442.6
3938.24
-51402.4
3846.47
-52339.4
3755.32
-53253.8
3664.77
-54145.7
3574.8
-55015.2
3485.43
-55862.6
3396.65
-56688
3308.47
-57491.5
3220.89
-58273.3
3133.92
-59033.5
3047.56
-59772.3
2961.82
-60489.9
2876.71
-61186.4
2792.24
-61861.9
2708.42
-62516.7
2625.25
-63150.9
2542.74
-63764.6
2460.9
-64358.1
2379.74
-64931.5
2299.28
-65484.9
2219.51
-66018.6
2140.46
-66532.8
2062.12
-67027.6
1984.52
-67503.2
1907.65
-67959.7
1831.54
-68397.5
1756.18
-68816.6
1681.6
-69217.3
1607.79
-69599.8
1534.78
-69964.2
1462.57
-70310.8
1391.16
-70639.8
1320.57
-70951.3
1250.81
-71245.6
1181.89
-71523
1113.81
-71783.5
1046.58
-72027.5
980.216
-72255.1
914.718
-72466.6
850.096
-72662.2
786.357
-72842
723.506
-73006.4
661.55
-73155.6
600.494
-73289.7
540.343
-73409.1
481.103
-73513.8
422.777
-73604.3
365.37
-73680.6
308.884
-73743.1
253.322
-73792
198.687
-73827.4
144.982
-73849.6
92.2061
-73858.9
40.3619
-73855.6
-10.5505
-73839.7
-60.5309
-73811.6
-109.58
-73771.4
-157.698
-73719.5
-204.887
-73656.1
-251.148
-73581.3
-296.484
-73495.5
-340.897
-73398.8
-384.39
-73291.4
-426.967
-73173.7
-468.632
-73045.8
-509.389
-72908
-549.242
-72760.4
-588.197
-72603.4
-626.259
-72437.1
-663.435
-72261.7
-699.729
-72077.5
-735.149
-71884.6
-769.702
-71683.4
-803.394
-71474
-836.233
-71256.5
-868.226
-71031.4
-899.383
-70798.6
-929.711
-70558.5
-959.218
-70311.3
-987.913
-70057.1
-1015.81
-69796.1
-1042.9
-69528.6
-1069.22
-69254.7
-1094.76
-68974.6
-1119.54
-68688.5
-1143.56
-68396.7
-1166.83
-68099.2
-1189.37
-67796.3
-1211.19
-67488.1
-1232.3
-67174.9
-1252.7
-66856.7
-1272.4
-66533.8
-1291.43
-66206.3
-1309.79
-65874.4
-1327.48
-65538.3
-1344.53
-65198.1
-1360.94
-64853.9
-1376.72
-64506
-1391.89
-64154.5
-1406.45
-63799.5
-1420.42
-63441.1
-1433.8
-63079.6
-1446.62
-62715
-1458.87
-62347.4
-1470.57
-61977.2
-1481.74
-61604.2
-1492.37
-61228.8
-1502.5
-60851
-1512.11
-60470.8
-1521.23
-60088.6
-1529.87
-59704.3
-1538.03
-59318.1
-1545.73
-58930.1
-1552.97
-58540.5
-1559.78
-58149.2
-1566.15
-57756.5
-1572.1
-57362.3
-1577.64
-56967
-1582.78
-56570.4
-1587.53
-56172.7
-1591.9
-55774.1
-1595.89
-55374.6
-1599.52
-54974.2
-1602.8
-54573.2
-1605.74
-54171.5
-1608.34
-53769.2
-1610.61
-53366.4
-1612.57
-52963.3
-1614.23
-52559.8
-1615.58
-52156.1
-1616.65
-51752.1
-1617.43
-51348.1
-1617.94
-50944
-1618.19
-50539.9
-1618.17
-50135.8
-1617.92
-49731.9
-1617.41
-49328.2
-1616.68
-48924.8
-1615.72
-48521.6
-1614.54
-48118.8
-1613.15
-47716.4
-1611.56
-47314.5
-1609.77
-46913
-1607.79
-46512.1
-1605.63
-46111.8
-1603.29
-45712.1
-1600.78
-45313.1
-1598.1
-44914.8
-1595.27
-44517.2
-1592.29
-44120.5
-1589.16
-43724.5
-1585.9
-43329.4
-1582.5
-42935.2
-1578.97
-42542
-1575.31
-42149.6
-1571.55
-41758.2
-1567.66
-41367.9
-1563.68
-40978.5
-1559.59
-40590.2
-1555.4
-40203
-1551.12
-39816.9
-1546.76
-39431.8
-1542.31
-39048
-1537.78
-38665.2
-1533.18
-38283.7
-1528.51
-37903.3
-1523.77
-37524.1
-1518.97
-37146.1
-1514.11
-36769.4
-1509.2
-36393.9
-1504.24
-36019.7
-1499.24
-35646.7
-1494.19
-35275
-1489.1
-34904.6
-1483.98
-34535.4
-1478.82
-34167.6
-1473.63
-33801
-1468.42
-33435.8
-1463.19
-33071.9
-1457.93
-32709.3
-1452.66
-32348
-1447.37
-31988.1
-1442.07
-31629.4
-1436.77
-31272.2
-1431.45
-30916.2
-1426.13
-30561.5
-1420.81
-30208.2
-1415.5
-29856.2
-1410.18
-29505.6
-1404.87
-29156.3
-1399.57
-28808.2
-1394.28
-28461.5
-1389
-28116.2
-1383.73
-27772.1
-1378.48
-27429.3
-1373.24
-27087.9
-1368.03
-26747.7
-1362.84
-26408.9
-1357.67
-26071.3
-1352.52
-25735
-1347.4
-25399.9
-1342.31
-25066.1
-1337.25
-24733.6
-1332.22
-24402.4
-1327.22
-24072.3
-1322.26
-23743.5
-1317.33
-23415.9
-1312.43
-23089.6
-1307.58
-22764.4
-1302.76
-22440.4
-1297.98
-22117.7
-1293.25
-21796
-1288.55
-21475.6
-1283.9
-21156.3
-1279.29
-20838.1
-1274.73
-20521
-1270.21
-20205.1
-1265.75
-19890.3
-1261.32
-19576.6
-1256.95
-19263.9
-1252.63
-18952.3
-1248.36
-18641.8
-1244.14
-18332.3
-1239.97
-18023.8
-1235.85
-17716.3
-1231.79
-17409.9
-1227.78
-17104.4
-1223.83
-16799.9
-1219.93
-16496.3
-1216.09
-16193.7
-1212.3
-15892.1
-1208.58
-15591.3
-1204.91
-15291.5
-1201.29
-14992.5
-1197.74
-14694.4
-1194.24
-14397.2
-1190.81
-14100.8
-1187.43
-13805.2
-1184.12
-13510.4
-1180.87
-13216.4
-1177.67
-12923.3
-1174.54
-12630.8
-1171.48
-12339.2
-1168.47
-12048.2
-1165.53
-11758
-1162.65
-11468.5
-1159.83
-11179.7
-1157.08
-10891.5
-1154.39
-10604
-1151.76
-10317.1
-1149.2
-10030.9
-1146.71
-9745.23
-1144.28
-9460.17
-1141.91
-9175.69
-1139.61
-8891.77
-1137.38
-8608.39
-1135.21
-8325.53
-1133.11
-8043.18
-1131.07
-7761.32
-1129.1
-7479.93
-1127.2
-7199
-1125.36
-6918.52
-1123.59
-6638.45
-1121.89
-6358.8
-1120.25
-6079.53
-1118.69
-5800.64
-1117.19
-5522.11
-1115.75
-5243.91
-1114.39
-4966.04
-1113.09
-4688.48
-1111.86
-4411.21
-1110.7
-4134.2
-1109.6
-3857.46
-1108.58
-3580.95
-1107.62
-3304.66
-1106.73
-3028.58
-1105.92
-2752.68
-1105.17
-2476.96
-1104.49
-2201.38
-1103.89
-1925.93
-1103.35
-1650.6
-1102.89
-1375.37
-1102.51
-1100.21
-1102.2
-825.118
-1101.96
-550.063
-1101.79
-275.03
-1101.7
-1101.67
-2216.05
11338.6
-4420.63
11269.4
-6602.51
11124.7
-8751.27
10913.8
-10857.7
10648.8
-12914.4
10343.5
-14915.6
10012
-16857.5
9667.35
-18737.9
9320.9
-20556.4
8981.63
-22313.6
8656.15
-24011.1
8348.76
-25651.4
8061.83
-27237.5
7796.17
-28772.6
7551.43
-30260
7326.41
-31702.9
7119.41
-33104.5
6928.45
-34467.6
6751.47
-35794.9
6586.42
-37088.7
6431.41
-38350.9
6284.69
-39583.2
6144.74
-40787.2
6010.24
-41963.9
5880.08
-43114.3
5753.36
-44239.1
5629.36
-45339.1
5507.51
-46414.6
5387.38
-47466.1
5268.66
-48493.9
5151.13
-49498.2
5034.61
-50479.4
4919.02
-51437.5
4804.26
-52372.9
4690.3
-53285.6
4577.12
-54175.9
4464.69
-55043.8
4353.01
-55889.6
4242.07
-56713.4
4131.89
-57515.3
4022.46
-58295.5
3913.79
-59054.2
3805.89
-59791.5
3698.76
-60507.5
3592.43
-61202.5
3486.88
-61876.6
3382.15
-62529.9
3278.23
-63162.6
3175.14
-63774.9
3072.88
-64367
2971.48
-64938.9
2870.94
-65491
2771.27
-66023.4
2672.5
-66536.2
2574.62
-67029.6
2477.65
-67503.8
2381.6
-67959.1
2286.5
-68395.5
2192.34
-68813.4
2099.15
-69212.8
2006.93
-69594
1915.7
-69957.2
1825.46
-70302.5
1736.24
-70630.2
1648.04
-70940.6
1560.88
-71233.7
1474.76
-71509.8
1389.69
-71769.2
1305.69
-72012
1222.77
-72238.5
1140.93
-72448.8
1060.19
-72643.2
980.553
-72822
902.024
-72985.3
824.615
-73133.3
748.33
-73266.4
673.178
-73384.6
599.164
-73488.4
526.293
-73577.8
454.57
-73653.1
383.999
-73714.5
314.584
-73762.4
246.327
-73796.8
179.232
-73818.1
113.301
-73826.4
48.533
-73822.1
-15.0695
-73805.3
-77.5069
-73776.3
-138.78
-73735.2
-198.889
-73682.5
-257.836
-73618.1
-315.624
-73542.5
-372.255
-73455.8
-427.732
-73358.3
-482.059
-73250.2
-535.241
-73131.7
-587.282
-73003
-638.189
-72864.4
-687.966
-72716.1
-736.62
-72558.4
-784.158
-72391.3
-830.587
-72215.3
-875.915
-72030.4
-920.151
-71836.9
-963.301
-71635
-1005.38
-71425
-1046.39
-71206.9
-1086.34
-70981.2
-1125.25
-70747.9
-1163.12
-70507.2
-1199.96
-70259.4
-1235.79
-70004.7
-1270.62
-69743.2
-1304.45
-69475.2
-1337.31
-69200.9
-1369.2
-68920.4
-1400.13
-68633.9
-1430.12
-68341.6
-1459.17
-68043.7
-1487.31
-67740.5
-1514.55
-67431.9
-1540.89
-67118.3
-1566.36
-66799.8
-1590.96
-66476.6
-1614.7
-66148.8
-1637.61
-65816.7
-1659.7
-65480.3
-1680.97
-65139.8
-1701.45
-64795.4
-1721.14
-64447.3
-1740.07
-64095.5
-1758.24
-63740.3
-1775.67
-63381.8
-1792.37
-63020.1
-1808.35
-62655.4
-1823.64
-62287.7
-1838.23
-61917.3
-1852.16
-61544.3
-1865.43
-61168.8
-1878.05
-60790.8
-1890.04
-60410.7
-1901.41
-60028.4
-1912.18
-59644.1
-1922.36
-59257.9
-1931.95
-58869.9
-1940.99
-58480.2
-1949.47
-58088.9
-1957.41
-57696.2
-1964.82
-57302.2
-1971.72
-56906.8
-1978.12
-56510.3
-1984.04
-56112.8
-1989.47
-55714.2
-1994.44
-55314.8
-1998.96
-54914.5
-2003.04
-54513.6
-2006.69
-54112
-2009.92
-53709.9
-2012.74
-53307.3
-2015.17
-52904.3
-2017.22
-52500.9
-2018.9
-52097.4
-2020.21
-51693.6
-2021.17
-51289.7
-2021.79
-50885.8
-2022.08
-50481.9
-2022.05
-50078.1
-2021.71
-49674.5
-2021.07
-49271
-2020.14
-48867.8
-2018.93
-48464.8
-2017.44
-48062.3
-2015.69
-47660.1
-2013.69
-47258.5
-2011.44
-46857.3
-2008.95
-46456.6
-2006.23
-46056.6
-2003.3
-45657.2
-2000.15
-45258.5
-1996.8
-44860.5
-1993.25
-44463.3
-1989.51
-44066.8
-1985.59
-43671.2
-1981.5
-43276.4
-1977.24
-42882.5
-1972.82
-42489.6
-1968.25
-42097.5
-1963.53
-41706.5
-1958.67
-41316.5
-1953.68
-40927.5
-1948.56
-40539.5
-1943.32
-40152.7
-1937.96
-39766.9
-1932.5
-39382.2
-1926.93
-38998.7
-1921.27
-38616.3
-1915.51
-38235.1
-1909.66
-37855.1
-1903.74
-37476.3
-1897.74
-37098.7
-1891.66
-36722.4
-1885.52
-36347.3
-1879.32
-35973.4
-1873.05
-35600.8
-1866.74
-35229.5
-1860.38
-34859.4
-1853.97
-34490.7
-1847.52
-34123.2
-1841.04
-33757.1
-1834.52
-33392.3
-1827.97
-33028.8
-1821.4
-32666.6
-1814.81
-32305.7
-1808.2
-31946.1
-1801.57
-31587.9
-1794.94
-31231
-1788.29
-30875.4
-1781.64
-30521.2
-1774.99
-30168.3
-1768.34
-29816.7
-1761.7
-29466.5
-1755.06
-29117.5
-1748.43
-28769.9
-1741.82
-28423.7
-1735.22
-28078.7
-1728.63
-27735
-1722.07
-27392.7
-1715.53
-27051.6
-1709.01
-26711.9
-1702.52
-26373.4
-1696.06
-26036.3
-1689.63
-25700.4
-1683.23
-25365.7
-1676.87
-25032.4
-1670.54
-24700.3
-1664.25
-24369.4
-1658
-24039.8
-1651.8
-23711.4
-1645.64
-23384.2
-1639.52
-23058.3
-1633.45
-22733.5
-1627.43
-22410
-1621.46
-22087.6
-1615.54
-21766.4
-1609.67
-21446.3
-1603.86
-21127.4
-1598.1
-20809.7
-1592.4
-20493
-1586.76
-20177.5
-1581.17
-19863.1
-1575.65
-19549.8
-1570.18
-19237.5
-1564.78
-18926.3
-1559.44
-18616.2
-1554.17
-18307.1
-1548.96
-17999
-1543.82
-17692
-1538.74
-17385.9
-1533.73
-17080.9
-1528.79
-16776.8
-1523.92
-16473.6
-1519.12
-16171.4
-1514.39
-15870.1
-1509.73
-15569.8
-1505.14
-15270.3
-1500.63
-14971.8
-1496.19
-14674.1
-1491.82
-14377.2
-1487.53
-14081.2
-1483.31
-13786.1
-1479.17
-13491.7
-1475.11
-13198.1
-1471.12
-12905.3
-1467.21
-12613.3
-1463.37
-12322
-1459.62
-12031.5
-1455.94
-11741.7
-1452.34
-11452.6
-1448.82
-11164.1
-1445.38
-10876.4
-1442.02
-10589.2
-1438.74
-10302.8
-1435.54
-10016.9
-1432.42
-9731.66
-1429.39
-9447
-1426.43
-9162.92
-1423.56
-8879.38
-1420.77
-8596.39
-1418.06
-8313.93
-1415.43
-8031.97
-1412.89
-7750.5
-1410.43
-7469.5
-1408.05
-7188.96
-1405.75
-6908.86
-1403.54
-6629.19
-1401.42
-6349.92
-1399.37
-6071.04
-1397.41
-5792.54
-1395.54
-5514.4
-1393.75
-5236.59
-1392.04
-4959.11
-1390.42
-4681.93
-1388.88
-4405.04
-1387.43
-4128.43
-1386.06
-3852.07
-1384.78
-3575.94
-1383.59
-3300.04
-1382.48
-3024.35
-1381.46
-2748.83
-1380.52
-2473.49
-1379.68
-2198.3
-1378.92
-1923.24
-1378.26
-1648.3
-1377.68
-1373.45
-1377.2
-1098.68
-1376.81
-823.964
-1376.51
-549.292
-1376.3
-274.643
-1376.19
-1376.16
-2189.11
13527.2
-4368.18
13447.9
-6527.71
13283.7
-8658.63
13044.1
-10752.7
12742.3
-12802.8
12393
-14803.1
12011.8
-16749.5
11613.1
-18639
11209.7
-20470
10812
-22242.2
10427.7
-23956.2
10062.2
-25613.6
9718.61
-27216.4
9398.46
-28767.3
9101.82
-30269.2
8827.76
-31725
8574.69
-33137.6
8340.62
-34510
8123.38
-35844.8
7920.75
-37144.4
7730.57
-38411
7550.85
-39646.4
7379.78
-40852.4
7215.78
-42030.2
7057.47
-43181
6903.72
-44305.6
6753.61
-45404.9
6606.4
-46479.4
6461.51
-47529.7
6318.52
-48556
6177.1
-49558.8
6037.03
-50538.4
5898.15
-51494.8
5760.35
-52428.4
5623.56
-53339.4
5487.72
-54227.9
5352.82
-55094.1
5218.83
-55938.1
5085.75
-56760.2
4953.57
-57560.4
4822.3
-58338.9
4691.95
-59095.9
4562.53
-59831.5
4434.03
-60545.9
4306.48
-61239.2
4179.88
-61911.6
4054.25
-62563.3
3929.59
-63194.5
3805.93
-63805.2
3683.27
-64395.7
3561.64
-64966.1
3441.03
-65516.6
3321.48
-66047.4
3202.99
-66558.6
3085.57
-67050.5
2969.25
-67523.3
2854.04
-67977
2739.95
-68412
2627.01
-68828.3
2515.21
-69226.3
2404.59
-69606
2295.15
-69967.7
2186.9
-70311.6
2079.88
-70637.9
1974.07
-70946.8
1869.51
-71238.5
1766.21
-71513.3
1664.17
-71771.2
1563.41
-72012.6
1463.94
-72237.7
1365.77
-72446.7
1268.92