/*--------------------------------*- C++ -*----------------------------------*\
| =========                 |                                                 |
| \\      /  F ield         | OpenFOAM: The Open Source CFD Toolbox           |
|  \\    /   O peration     | Version:  2212                                  |
|   \\  /    A nd           | Website:  www.openfoam.com                      |
|    \\/     M anipulation  |                                                 |
\*---------------------------------------------------------------------------*/
FoamFile
{
    version     2.0;
    format      ascii;
    arch        "LSB;label=32;scalar=64";
    class       volScalarField;
    location    "950";
    object      p_rgh;
}
// * * * * * * * * * * * * * * * * * * * * * * * * * * * * * * * * * * * * * //

dimensions      [1 -1 -2 0 0 0 0];

internalField   nonuniform List<scalar> 
204800
(
51.8438
51.8427
51.8408
51.838
51.834
51.8288
51.8223
51.8144
51.805
51.7942
51.7821
51.7686
51.7539
51.7379
51.7208
51.7025
51.683
51.6624
51.6407
51.618
51.5941
51.5691
51.5431
51.516
51.4879
51.4588
51.4286
51.3974
51.3652
51.332
51.2978
51.2627
51.2266
51.1896
51.1516
51.1127
51.0729
51.0323
50.9907
50.9483
50.9051
50.861
50.8161
50.7704
50.7239
50.6767
50.6287
50.58
50.5306
50.4804
50.4296
50.3782
50.326
50.2733
50.2199
50.1659
50.1114
50.0563
50.0007
49.9445
49.8878
49.8307
49.7731
49.7151
49.6566
49.5977
49.5384
49.4788
49.4188
49.3585
49.2978
49.2369
49.1757
49.1143
49.0526
48.9907
48.9286
48.8663
48.8039
48.7414
48.6787
48.6159
48.5531
48.4901
48.4272
48.3642
48.3012
48.2382
48.1753
48.1124
48.0496
47.9869
47.9242
47.8617
47.7994
47.7371
47.6751
47.6133
47.5516
47.4902
47.429
47.3681
47.3075
47.2471
47.187
47.1273
47.0679
47.0088
46.9501
46.8918
46.8339
46.7764
46.7193
46.6626
46.6064
46.5506
46.4953
46.4405
46.3861
46.3323
46.279
46.2262
46.1739
46.1222
46.0711
46.0205
45.9704
45.921
45.8722
45.8239
45.7763
45.7293
45.6829
45.6371
45.592
45.5475
45.5037
45.4605
45.4179
45.3761
45.3349
45.2944
45.2546
45.2154
45.1769
45.1392
45.1021
45.0657
45.03
44.995
44.9607
44.9271
44.8942
44.862
44.8306
44.7998
44.7697
44.7404
44.7117
44.6837
44.6565
44.6299
44.6041
44.5789
44.5544
44.5307
44.5076
44.4852
44.4635
44.4424
44.4221
44.4024
44.3834
44.365
44.3473
44.3303
44.3139
44.2982
44.2831
44.2686
44.2548
44.2416
44.229
44.217
44.2056
44.1948
44.1847
44.175
44.166
44.1576
44.1497
44.1423
44.1355
44.1293
44.1236
44.1184
44.1137
44.1096
44.1059
44.1028
44.1001
44.0979
44.0961
44.0949
44.094
44.0937
44.0937
44.0942
44.0951
44.0964
44.0981
44.1002
44.1026
44.1055
44.1087
44.1122
44.1161
44.1204
44.1249
44.1298
44.135
44.1405
44.1463
44.1523
44.1586
44.1652
44.1721
44.1792
44.1865
44.194
44.2018
44.2097
44.2179
44.2263
44.2348
44.2435
44.2524
44.2614
44.2706
44.2799
44.2894
44.2989
44.3086
44.3184
44.3283
44.3382
44.3483
44.3584
44.3686
44.3788
44.3891
44.3994
44.4098
44.4201
44.4305
44.4409
44.4513
44.4617
44.4721
44.4825
44.4928
44.5032
44.5134
44.5236
44.5338
44.5439
44.554
44.5639
44.5738
44.5836
44.5933
44.6029
44.6125
44.6219
44.6312
44.6403
44.6494
44.6583
44.6671
44.6757
44.6842
44.6925
44.7007
44.7088
44.7166
44.7243
44.7319
44.7392
44.7464
44.7534
44.7602
44.7668
44.7732
44.7794
44.7854
44.7912
44.7968
44.8022
44.8074
44.8123
44.8171
44.8216
44.8259
44.8299
44.8338
44.8374
44.8408
44.8439
44.8468
44.8495
44.8519
44.8541
44.8561
44.8578
44.8592
44.8605
44.8614
44.8622
44.8627
44.8629
51.7545
51.7528
51.7498
51.7454
51.7398
51.7329
51.7249
51.7157
51.7053
51.6938
51.6811
51.6673
51.6524
51.6363
51.619
51.6006
51.5812
51.5606
51.5389
51.5162
51.4923
51.4674
51.4414
51.4144
51.3863
51.3572
51.327
51.2959
51.2638
51.2306
51.1965
51.1614
51.1254
51.0884
51.0505
51.0117
50.972
50.9314
50.8899
50.8476
50.8044
50.7605
50.7156
50.67
50.6237
50.5765
50.5286
50.48
50.4306
50.3806
50.3299
50.2785
50.2265
50.1738
50.1205
50.0667
50.0122
49.9572
49.9017
49.8456
49.7891
49.7321
49.6746
49.6166
49.5582
49.4995
49.4403
49.3808
49.3209
49.2607
49.2002
49.1394
49.0783
49.0169
48.9554
48.8936
48.8316
48.7695
48.7072
48.6447
48.5822
48.5195
48.4568
48.394
48.3311
48.2683
48.2054
48.1425
48.0797
48.0169
47.9542
47.8916
47.8291
47.7667
47.7045
47.6424
47.5804
47.5187
47.4572
47.3959
47.3348
47.274
47.2135
47.1532
47.0933
47.0337
46.9744
46.9154
46.8568
46.7986
46.7408
46.6834
46.6264
46.5698
46.5137
46.458
46.4028
46.3481
46.2939
46.2401
46.1869
46.1342
46.0821
46.0304
45.9794
45.9289
45.879
45.8296
45.7809
45.7327
45.6852
45.6382
45.5919
45.5463
45.5012
45.4568
45.4131
45.37
45.3275
45.2857
45.2446
45.2042
45.1644
45.1253
45.087
45.0493
45.0122
44.9759
44.9403
44.9054
44.8711
44.8376
44.8048
44.7727
44.7412
44.7105
44.6805
44.6512
44.6226
44.5947
44.5675
44.541
44.5152
44.4901
44.4657
44.4419
44.4189
44.3965
44.3749
44.3539
44.3336
44.3139
44.2949
44.2766
44.259
44.242
44.2256
44.2099
44.1949
44.1804
44.1666
44.1534
44.1409
44.1289
44.1176
44.1068
44.0966
44.087
44.078
44.0696
44.0617
44.0544
44.0476
44.0414
44.0357
44.0305
44.0259
44.0217
44.0181
44.0149
44.0122
44.01
44.0083
44.0071
44.0062
44.0059
44.0059
44.0064
44.0073
44.0086
44.0103
44.0124
44.0148
44.0177
44.0209
44.0244
44.0283
44.0326
44.0371
44.042
44.0472
44.0526
44.0584
44.0645
44.0708
44.0773
44.0842
44.0913
44.0986
44.1061
44.1138
44.1218
44.13
44.1383
44.1468
44.1555
44.1644
44.1734
44.1826
44.1919
44.2013
44.2108
44.2205
44.2303
44.2401
44.2501
44.2601
44.2702
44.2804
44.2906
44.3008
44.3111
44.3215
44.3318
44.3422
44.3526
44.363
44.3734
44.3837
44.3941
44.4044
44.4147
44.425
44.4352
44.4453
44.4554
44.4654
44.4754
44.4853
44.495
44.5047
44.5143
44.5238
44.5332
44.5425
44.5516
44.5607
44.5696
44.5783
44.587
44.5954
44.6038
44.6119
44.62
44.6278
44.6355
44.643
44.6504
44.6575
44.6645
44.6713
44.6779
44.6843
44.6905
44.6965
44.7023
44.7079
44.7132
44.7184
44.7233
44.7281
44.7326
44.7369
44.7409
44.7448
44.7484
44.7517
44.7549
44.7578
44.7604
44.7629
44.7651
44.767
44.7687
44.7702
44.7714
44.7724
44.7731
44.7736
44.7738
51.7354
51.7339
51.7309
51.7265
51.7209
51.714
51.706
51.6968
51.6864
51.6749
51.6622
51.6483
51.6333
51.6172
51.5999
51.5816
51.5621
51.5415
51.5198
51.497
51.4731
51.4482
51.4222
51.3952
51.3671
51.338
51.3078
51.2767
51.2445
51.2114
51.1773
51.1422
51.1061
51.0692
51.0313
50.9925
50.9528
50.9122
50.8707
50.8284
50.7852
50.7412
50.6964
50.6508
50.6044
50.5573
50.5094
50.4608
50.4114
50.3614
50.3107
50.2593
50.2073
50.1546
50.1013
50.0475
49.9931
49.9381
49.8825
49.8265
49.7699
49.7129
49.6554
49.5975
49.5391
49.4803
49.4212
49.3617
49.3018
49.2416
49.1811
49.1203
49.0592
48.9979
48.9363
48.8745
48.8126
48.7504
48.6881
48.6257
48.5632
48.5005
48.4378
48.375
48.3122
48.2493
48.1864
48.1236
48.0608
47.998
47.9353
47.8727
47.8102
47.7478
47.6856
47.6235
47.5616
47.4999
47.4383
47.377
47.316
47.2552
47.1947
47.1344
47.0745
47.0149
46.9556
46.8967
46.8381
46.7799
46.7221
46.6647
46.6077
46.5511
46.495
46.4394
46.3842
46.3294
46.2752
46.2215
46.1683
46.1156
46.0635
46.0119
45.9608
45.9103
45.8604
45.8111
45.7623
45.7142
45.6667
45.6197
45.5735
45.5278
45.4827
45.4384
45.3946
45.3515
45.3091
45.2673
45.2262
45.1858
45.146
45.107
45.0686
45.0309
44.9939
44.9576
44.922
44.8871
44.8528
44.8193
44.7865
44.7544
44.723
44.6923
44.6623
44.633
44.6044
44.5765
44.5493
44.5228
44.497
44.4719
44.4475
44.4238
44.4008
44.3784
44.3568
44.3358
44.3155
44.2958
44.2769
44.2586
44.2409
44.2239
44.2076
44.1919
44.1768
44.1624
44.1486
44.1354
44.1229
44.1109
44.0996
44.0888
44.0787
44.0691
44.0601
44.0517
44.0438
44.0365
44.0297
44.0235
44.0178
44.0126
44.008
44.0038
44.0002
43.9971
43.9944
43.9922
43.9905
43.9892
43.9884
43.988
43.9881
43.9886
43.9895
43.9908
43.9925
43.9946
43.9971
43.9999
44.0031
44.0067
44.0106
44.0148
44.0194
44.0242
44.0294
44.0349
44.0407
44.0467
44.053
44.0596
44.0665
44.0735
44.0808
44.0884
44.0961
44.1041
44.1122
44.1206
44.1291
44.1378
44.1467
44.1557
44.1649
44.1742
44.1836
44.1932
44.2028
44.2126
44.2225
44.2324
44.2424
44.2525
44.2627
44.2729
44.2832
44.2935
44.3038
44.3142
44.3246
44.335
44.3453
44.3557
44.3661
44.3764
44.3868
44.3971
44.4073
44.4175
44.4277
44.4378
44.4478
44.4577
44.4676
44.4774
44.4871
44.4967
44.5062
44.5156
44.5249
44.534
44.543
44.5519
44.5607
44.5693
44.5778
44.5861
44.5943
44.6023
44.6102
44.6179
44.6254
44.6327
44.6399
44.6469
44.6536
44.6602
44.6666
44.6728
44.6788
44.6846
44.6902
44.6956
44.7008
44.7057
44.7104
44.715
44.7192
44.7233
44.7271
44.7307
44.7341
44.7372
44.7401
44.7428
44.7452
44.7474
44.7494
44.7511
44.7525
44.7538
44.7547
44.7555
44.756
44.7562
51.656
51.6543
51.6508
51.6458
51.6394
51.6317
51.6229
51.613
51.602
51.59
51.5769
51.5627
51.5475
51.5312
51.5138
51.4953
51.4757
51.4551
51.4334
51.4106
51.3867
51.3617
51.3358
51.3087
51.2807
51.2516
51.2214
51.1903
51.1582
51.1251
51.091
51.056
51.02
50.983
50.9452
50.9064
50.8667
50.8262
50.7848
50.7425
50.6994
50.6554
50.6107
50.5651
50.5188
50.4717
50.4239
50.3753
50.3261
50.2761
50.2254
50.1741
50.1222
50.0696
50.0164
49.9626
49.9082
49.8533
49.7978
49.7419
49.6854
49.6284
49.571
49.5132
49.4549
49.3962
49.3371
49.2776
49.2179
49.1577
49.0973
49.0366
48.9756
48.9143
48.8528
48.7912
48.7293
48.6672
48.605
48.5426
48.4802
48.4176
48.355
48.2923
48.2295
48.1667
48.104
48.0412
47.9785
47.9158
47.8532
47.7906
47.7282
47.6659
47.6038
47.5418
47.4799
47.4183
47.3569
47.2956
47.2347
47.174
47.1135
47.0534
46.9935
46.934
46.8748
46.8159
46.7574
46.6993
46.6416
46.5842
46.5273
46.4709
46.4148
46.3592
46.3041
46.2495
46.1953
46.1417
46.0886
46.0359
45.9839
45.9323
45.8814
45.831
45.7811
45.7318
45.6832
45.6351
45.5876
45.5408
45.4946
45.449
45.404
45.3597
45.316
45.273
45.2306
45.1889
45.1478
45.1075
45.0678
45.0288
44.9905
44.9528
44.9159
44.8796
44.8441
44.8092
44.775
44.7416
44.7088
44.6767
44.6454
44.6147
44.5848
44.5555
44.527
44.4991
44.472
44.4455
44.4198
44.3947
44.3704
44.3467
44.3237
44.3014
44.2798
44.2588
44.2385
44.2189
44.2
44.1817
44.1641
44.1472
44.1309
44.1152
44.1002
44.0858
44.072
44.0588
44.0463
44.0344
44.0231
44.0123
44.0022
43.9926
43.9837
43.9753
43.9674
43.9601
43.9534
43.9472
43.9415
43.9363
43.9317
43.9276
43.924
43.9208
43.9182
43.916
43.9143
43.913
43.9122
43.9119
43.9119
43.9124
43.9133
43.9146
43.9164
43.9185
43.9209
43.9238
43.927
43.9305
43.9345
43.9387
43.9433
43.9481
43.9533
43.9588
43.9646
43.9706
43.9769
43.9835
43.9903
43.9974
44.0047
44.0123
44.02
44.028
44.0361
44.0445
44.053
44.0617
44.0705
44.0796
44.0887
44.098
44.1074
44.117
44.1266
44.1364
44.1463
44.1562
44.1662
44.1763
44.1865
44.1967
44.2069
44.2172
44.2276
44.2379
44.2483
44.2587
44.269
44.2794
44.2898
44.3001
44.3104
44.3207
44.331
44.3412
44.3513
44.3614
44.3714
44.3813
44.3912
44.401
44.4107
44.4202
44.4297
44.4391
44.4484
44.4575
44.4665
44.4754
44.4842
44.4928
44.5013
44.5096
44.5178
44.5258
44.5336
44.5413
44.5488
44.5561
44.5633
44.5703
44.577
44.5836
44.59
44.5962
44.6022
44.608
44.6136
44.619
44.6241
44.6291
44.6338
44.6383
44.6426
44.6466
44.6504
44.654
44.6574
44.6605
44.6634
44.6661
44.6685
44.6707
44.6727
44.6744
44.6758
44.677
44.678
44.6788
44.6792
44.6795
51.6248
51.6231
51.6197
51.6148
51.6084
51.6008
51.5921
51.5822
51.5712
51.5592
51.5461
51.5319
51.5166
51.5003
51.4828
51.4643
51.4447
51.424
51.4023
51.3794
51.3555
51.3306
51.3046
51.2775
51.2494
51.2203
51.1902
51.159
51.1269
51.0938
51.0597
51.0246
50.9886
50.9517
50.9138
50.8751
50.8354
50.7948
50.7534
50.7111
50.668
50.6241
50.5793
50.5338
50.4875
50.4404
50.3926
50.344
50.2947
50.2447
50.1941
50.1428
50.0908
50.0382
49.985
49.9313
49.8769
49.822
49.7665
49.7106
49.6541
49.5971
49.5397
49.4819
49.4236
49.3649
49.3058
49.2464
49.1866
49.1265
49.066
49.0053
48.9443
48.8831
48.8216
48.7599
48.6981
48.636
48.5738
48.5115
48.449
48.3864
48.3238
48.2611
48.1984
48.1356
48.0728
48.0101
47.9474
47.8847
47.8221
47.7596
47.6972
47.6349
47.5727
47.5107
47.4489
47.3873
47.3258
47.2647
47.2037
47.143
47.0826
47.0224
46.9626
46.903
46.8439
46.785
46.7265
46.6684
46.6107
46.5534
46.4965
46.44
46.384
46.3284
46.2733
46.2187
46.1646
46.1109
46.0578
46.0052
45.9532
45.9017
45.8507
45.8003
45.7505
45.7012
45.6526
45.6045
45.5571
45.5102
45.464
45.4184
45.3735
45.3291
45.2855
45.2425
45.2001
45.1584
45.1174
45.0771
45.0374
44.9984
44.9601
44.9225
44.8855
44.8493
44.8138
44.7789
44.7448
44.7113
44.6786
44.6465
44.6152
44.5845
44.5546
44.5254
44.4968
44.469
44.4419
44.4154
44.3897
44.3647
44.3403
44.3166
44.2937
44.2714
44.2498
44.2288
44.2086
44.189
44.1701
44.1518
44.1342
44.1173
44.101
44.0853
44.0703
44.0559
44.0422
44.0291
44.0165
44.0046
43.9933
43.9826
43.9725
43.963
43.954
43.9456
43.9378
43.9305
43.9237
43.9176
43.9119
43.9068
43.9021
43.898
43.8944
43.8913
43.8886
43.8865
43.8848
43.8835
43.8827
43.8824
43.8825
43.883
43.8839
43.8852
43.8869
43.8891
43.8915
43.8944
43.8976
43.9012
43.9051
43.9094
43.9139
43.9188
43.924
43.9295
43.9353
43.9413
43.9477
43.9543
43.9611
43.9682
43.9755
43.983
43.9908
43.9988
44.0069
44.0153
44.0238
44.0325
44.0414
44.0504
44.0596
44.0689
44.0783
44.0878
44.0975
44.1073
44.1171
44.1271
44.1371
44.1472
44.1574
44.1676
44.1779
44.1882
44.1985
44.2088
44.2192
44.2296
44.24
44.2504
44.2607
44.2711
44.2814
44.2917
44.3019
44.3121
44.3223
44.3324
44.3424
44.3523
44.3622
44.372
44.3817
44.3912
44.4007
44.4101
44.4194
44.4285
44.4376
44.4465
44.4552
44.4638
44.4723
44.4806
44.4888
44.4968
44.5047
44.5123
44.5198
44.5272
44.5343
44.5413
44.5481
44.5547
44.5611
44.5673
44.5733
44.579
44.5846
44.59
44.5952
44.6001
44.6048
44.6093
44.6136
44.6177
44.6215
44.6251
44.6285
44.6316
44.6345
44.6372
44.6396
44.6418
44.6437
44.6454
44.6469
44.6481
44.6491
44.6498
44.6503
44.6505
51.5526
51.5508
51.5472
51.5421
51.5354
51.5275
51.5183
51.5081
51.4968
51.4844
51.4711
51.4566
51.4412
51.4247
51.4071
51.3885
51.3688
51.348
51.3262
51.3033
51.2794
51.2544
51.2284
51.2013
51.1732
51.1441
51.114
51.0828
51.0507
51.0176
50.9835
50.9485
50.9125
50.8756
50.8377
50.799
50.7593
50.7188
50.6774
50.6352
50.5921
50.5482
50.5035
50.458
50.4117
50.3646
50.3168
50.2683
50.2191
50.1691
50.1185
50.0672
50.0153
49.9628
49.9096
49.8559
49.8016
49.7467
49.6913
49.6354
49.5789
49.522
49.4647
49.4069
49.3486
49.29
49.231
49.1716
49.1118
49.0518
48.9914
48.9307
48.8698
48.8086
48.7472
48.6855
48.6237
48.5617
48.4996
48.4373
48.3749
48.3124
48.2498
48.1871
48.1245
48.0618
47.999
47.9363
47.8737
47.8111
47.7485
47.6861
47.6237
47.5615
47.4994
47.4374
47.3757
47.3141
47.2527
47.1916
47.1307
47.0701
47.0097
46.9496
46.8898
46.8303
46.7712
46.7124
46.654
46.5959
46.5383
46.481
46.4242
46.3678
46.3118
46.2563
46.2012
46.1467
46.0926
46.039
45.986
45.9334
45.8814
45.8299
45.779
45.7287
45.6789
45.6297
45.5811
45.5331
45.4857
45.4389
45.3928
45.3472
45.3023
45.2581
45.2145
45.1715
45.1292
45.0875
45.0466
45.0063
44.9666
44.9277
44.8894
44.8519
44.815
44.7788
44.7433
44.7085
44.6744
44.641
44.6083
44.5763
44.545
44.5144
44.4845
44.4553
44.4268
44.399
44.3719
44.3455
44.3198
44.2948
44.2705
44.2469
44.2239
44.2017
44.1801
44.1592
44.139
44.1194
44.1005
44.0823
44.0648
44.0478
44.0316
44.016
44.001
43.9866
43.9729
43.9598
43.9473
43.9354
43.9241
43.9134
43.9033
43.8938
43.8849
43.8765
43.8687
43.8614
43.8547
43.8486
43.8429
43.8378
43.8332
43.8291
43.8255
43.8224
43.8198
43.8176
43.8159
43.8147
43.8139
43.8136
43.8137
43.8142
43.8152
43.8165
43.8182
43.8204
43.8229
43.8257
43.829
43.8325
43.8365
43.8407
43.8453
43.8502
43.8554
43.8609
43.8667
43.8727
43.8791
43.8857
43.8925
43.8996
43.9069
43.9145
43.9222
43.9302
43.9384
43.9467
43.9553
43.964
43.9728
43.9819
43.991
44.0003
44.0098
44.0193
44.029
44.0388
44.0486
44.0586
44.0686
44.0787
44.0888
44.0991
44.1093
44.1196
44.13
44.1403
44.1507
44.1611
44.1715
44.1818
44.1922
44.2025
44.2129
44.2231
44.2334
44.2436
44.2537
44.2638
44.2738
44.2838
44.2936
44.3034
44.3131
44.3227
44.3322
44.3415
44.3508
44.3599
44.369
44.3779
44.3866
44.3952
44.4037
44.412
44.4202
44.4282
44.436
44.4437
44.4512
44.4585
44.4657
44.4727
44.4794
44.486
44.4924
44.4986
44.5046
44.5104
44.516
44.5213
44.5265
44.5314
44.5362
44.5407
44.5449
44.549
44.5528
44.5564
44.5598
44.5629
44.5658
44.5685
44.5709
44.5731
44.575
44.5767
44.5782
44.5794
44.5804
44.5811
44.5816
44.5819
51.5132
51.5115
51.5079
51.5029
51.4963
51.4885
51.4795
51.4693
51.458
51.4457
51.4323
51.4179
51.4024
51.3858
51.3682
51.3495
51.3298
51.309
51.2872
51.2642
51.2403
51.2153
51.1892
51.1621
51.134
51.1048
51.0747
51.0435
51.0114
50.9782
50.9441
50.9091
50.8731
50.8362
50.7983
50.7596
50.7199
50.6794
50.638
50.5957
50.5526
50.5087
50.464
50.4184
50.3721
50.3251
50.2773
50.2288
50.1795
50.1296
50.079
50.0277
49.9758
49.9232
49.8701
49.8163
49.762
49.7071
49.6517
49.5958
49.5394
49.4825
49.4251
49.3673
49.309
49.2504
49.1914
49.132
49.0723
49.0122
48.9518
48.8912
48.8302
48.769
48.7076
48.646
48.5842
48.5222
48.46
48.3977
48.3353
48.2728
48.2102
48.1476
48.0849
48.0222
47.9595
47.8968
47.8342
47.7715
47.709
47.6466
47.5842
47.522
47.4599
47.398
47.3362
47.2746
47.2133
47.1522
47.0913
47.0306
46.9703
46.9102
46.8504
46.7909
46.7318
46.673
46.6146
46.5566
46.4989
46.4417
46.3849
46.3285
46.2725
46.217
46.162
46.1074
46.0533
45.9998
45.9467
45.8942
45.8422
45.7907
45.7399
45.6895
45.6398
45.5906
45.542
45.494
45.4466
45.3999
45.3537
45.3082
45.2633
45.2191
45.1755
45.1325
45.0902
45.0486
45.0076
44.9674
44.9277
44.8888
44.8506
44.813
44.7762
44.74
44.7045
44.6697
44.6356
44.6022
44.5696
44.5376
44.5063
44.4757
44.4458
44.4167
44.3882
44.3604
44.3333
44.307
44.2813
44.2563
44.232
44.2084
44.1855
44.1633
44.1417
44.1208
44.1006
44.0811
44.0622
44.044
44.0265
44.0096
43.9933
43.9777
43.9628
43.9484
43.9347
43.9217
43.9092
43.8973
43.8861
43.8754
43.8653
43.8558
43.8469
43.8386
43.8308
43.8235
43.8168
43.8107
43.8051
43.8
43.7954
43.7913
43.7877
43.7846
43.782
43.7799
43.7782
43.777
43.7763
43.776
43.7761
43.7766
43.7776
43.7789
43.7807
43.7828
43.7853
43.7882
43.7915
43.7951
43.799
43.8033
43.8079
43.8128
43.818
43.8235
43.8293
43.8354
43.8417
43.8483
43.8552
43.8623
43.8696
43.8772
43.885
43.893
43.9011
43.9095
43.9181
43.9268
43.9357
43.9447
43.9539
43.9632
43.9726
43.9822
43.9919
44.0016
44.0115
44.0215
44.0315
44.0416
44.0518
44.062
44.0723
44.0826
44.0929
44.1033
44.1137
44.1241
44.1345
44.1449
44.1552
44.1656
44.1759
44.1862
44.1964
44.2066
44.2168
44.2269
44.2369
44.2469
44.2567
44.2665
44.2762
44.2858
44.2953
44.3047
44.3139
44.3231
44.3321
44.341
44.3498
44.3584
44.3669
44.3752
44.3834
44.3914
44.3992
44.4069
44.4144
44.4217
44.4289
44.4359
44.4426
44.4492
44.4556
44.4618
44.4678
44.4736
44.4792
44.4846
44.4897
44.4947
44.4994
44.5039
44.5082
44.5122
44.5161
44.5197
44.523
44.5262
44.5291
44.5317
44.5341
44.5363
44.5383
44.54
44.5414
44.5427
44.5436
44.5444
44.5449
44.5451
51.4462
51.4444
51.4408
51.4357
51.4291
51.4211
51.4119
51.4016
51.3901
51.3776
51.3641
51.3495
51.3339
51.3172
51.2995
51.2807
51.2609
51.24
51.2181
51.1951
51.1711
51.146
51.12
51.0928
51.0647
51.0355
51.0053
50.9742
50.942
50.9089
50.8748
50.8397
50.8037
50.7668
50.7289
50.6902
50.6505
50.61
50.5686
50.5264
50.4833
50.4394
50.3947
50.3492
50.3029
50.2558
50.2081
50.1595
50.1103
50.0604
50.0098
49.9585
49.9066
49.8541
49.801
49.7473
49.693
49.6381
49.5827
49.5268
49.4704
49.4135
49.3562
49.2984
49.2402
49.1816
49.1226
49.0632
49.0035
48.9435
48.8831
48.8225
48.7616
48.7004
48.639
48.5774
48.5157
48.4537
48.3916
48.3293
48.2669
48.2045
48.1419
48.0793
48.0167
47.954
47.8913
47.8287
47.766
47.7035
47.641
47.5785
47.5162
47.454
47.392
47.3301
47.2684
47.2068
47.1455
47.0844
47.0236
46.9629
46.9026
46.8426
46.7828
46.7234
46.6643
46.6056
46.5472
46.4892
46.4316
46.3744
46.3176
46.2612
46.2053
46.1498
46.0948
46.0403
45.9863
45.9328
45.8798
45.8273
45.7753
45.7239
45.673
45.6228
45.573
45.5239
45.4753
45.4274
45.38
45.3333
45.2872
45.2417
45.1969
45.1527
45.1091
45.0662
45.0239
44.9824
44.9414
44.9012
44.8616
44.8227
44.7845
44.747
44.7102
44.674
44.6386
44.6038
44.5698
44.5365
44.5038
44.4719
44.4406
44.4101
44.3802
44.3511
44.3226
44.2949
44.2679
44.2415
44.2159
44.1909
44.1667
44.1431
44.1202
44.098
44.0765
44.0557
44.0355
44.016
43.9972
43.979
43.9615
43.9446
43.9284
43.9128
43.8979
43.8836
43.8699
43.8569
43.8444
43.8326
43.8213
43.8107
43.8007
43.7912
43.7823
43.774
43.7662
43.759
43.7523
43.7462
43.7406
43.7355
43.731
43.7269
43.7234
43.7203
43.7177
43.7156
43.714
43.7128
43.712
43.7117
43.7119
43.7124
43.7134
43.7148
43.7166
43.7187
43.7212
43.7241
43.7274
43.731
43.735
43.7393
43.7439
43.7488
43.754
43.7596
43.7654
43.7715
43.7778
43.7845
43.7913
43.7985
43.8058
43.8134
43.8212
43.8292
43.8373
43.8457
43.8543
43.863
43.8719
43.8809
43.8901
43.8995
43.9089
43.9185
43.9282
43.938
43.9478
43.9578
43.9679
43.978
43.9881
43.9984
44.0087
44.019
44.0293
44.0397
44.0501
44.0605
44.0709
44.0813
44.0916
44.102
44.1123
44.1226
44.1329
44.1431
44.1532
44.1633
44.1733
44.1833
44.1932
44.2029
44.2126
44.2222
44.2317
44.2411
44.2504
44.2595
44.2686
44.2775
44.2862
44.2949
44.3033
44.3117
44.3198
44.3278
44.3357
44.3434
44.3509
44.3582
44.3654
44.3723
44.3791
44.3857
44.3921
44.3983
44.4043
44.4101
44.4157
44.421
44.4262
44.4311
44.4359
44.4404
44.4447
44.4487
44.4525
44.4561
44.4595
44.4626
44.4655
44.4682
44.4706
44.4728
44.4748
44.4765
44.4779
44.4791
44.4801
44.4809
44.4813
44.4816
51.4014
51.3997
51.3962
51.3912
51.3846
51.3768
51.3677
51.3574
51.346
51.3335
51.32
51.3054
51.2897
51.2731
51.2553
51.2365
51.2166
51.1957
51.1737
51.1507
51.1267
51.1016
51.0754
51.0483
51.0201
50.9909
50.9607
50.9295
50.8973
50.8641
50.83
50.7949
50.7589
50.722
50.6841
50.6453
50.6056
50.5651
50.5237
50.4814
50.4383
50.3944
50.3497
50.3042
50.2579
50.2108
50.163
50.1145
50.0652
50.0153
49.9647
49.9134
49.8615
49.809
49.7558
49.7021
49.6478
49.5929
49.5375
49.4816
49.4252
49.3683
49.311
49.2532
49.1949
49.1363
49.0773
49.0179
48.9582
48.8982
48.8378
48.7772
48.7163
48.6551
48.5937
48.5321
48.4703
48.4083
48.3462
48.2839
48.2216
48.1591
48.0965
48.0339
47.9713
47.9086
47.8459
47.7833
47.7206
47.6581
47.5955
47.5331
47.4708
47.4086
47.3466
47.2847
47.2229
47.1614
47.1001
47.039
46.9781
46.9175
46.8572
46.7972
46.7374
46.678
46.6189
46.5602
46.5018
46.4438
46.3862
46.329
46.2722
46.2159
46.1599
46.1045
46.0495
45.995
45.941
45.8875
45.8344
45.782
45.73
45.6786
45.6278
45.5775
45.5278
45.4787
45.4301
45.3822
45.3348
45.2881
45.242
45.1966
45.1517
45.1075
45.064
45.0211
44.9789
44.9373
44.8964
44.8562
44.8166
44.7777
44.7395
44.702
44.6652
44.6291
44.5937
44.559
44.5249
44.4916
44.459
44.4271
44.3958
44.3653
44.3355
44.3064
44.278
44.2502
44.2232
44.1969
44.1713
44.1464
44.1221
44.0986
44.0757
44.0535
44.032
44.0112
43.9911
43.9716
43.9528
43.9346
43.9172
43.9003
43.8841
43.8686
43.8537
43.8394
43.8257
43.8127
43.8003
43.7885
43.7773
43.7667
43.7566
43.7472
43.7383
43.73
43.7223
43.7151
43.7085
43.7024
43.6968
43.6917
43.6872
43.6832
43.6796
43.6766
43.674
43.672
43.6703
43.6692
43.6685
43.6682
43.6684
43.6689
43.6699
43.6713
43.6731
43.6753
43.6779
43.6808
43.6841
43.6877
43.6917
43.696
43.7006
43.7056
43.7108
43.7164
43.7222
43.7283
43.7347
43.7414
43.7483
43.7554
43.7628
43.7704
43.7782
43.7862
43.7944
43.8028
43.8114
43.8201
43.829
43.8381
43.8473
43.8566
43.8661
43.8757
43.8854
43.8952
43.9051
43.9151
43.9251
43.9353
43.9454
43.9557
43.966
43.9763
43.9867
43.9971
44.0075
44.0179
44.0283
44.0387
44.0491
44.0594
44.0698
44.0801
44.0903
44.1006
44.1107
44.1208
44.1309
44.1408
44.1507
44.1605
44.1702
44.1798
44.1893
44.1987
44.208
44.2172
44.2262
44.2351
44.2439
44.2525
44.261
44.2693
44.2775
44.2855
44.2934
44.3011
44.3086
44.3159
44.3231
44.33
44.3368
44.3434
44.3498
44.356
44.362
44.3678
44.3734
44.3788
44.384
44.3889
44.3936
44.3981
44.4024
44.4065
44.4103
44.4139
44.4173
44.4204
44.4233
44.426
44.4284
44.4306
44.4325
44.4342
44.4357
44.4369
44.4379
44.4386
44.4391
44.4394
51.338
51.3363
51.3328
51.3278
51.3213
51.3134
51.3042
51.2939
51.2824
51.2699
51.2563
51.2416
51.2258
51.209
51.1912
51.1723
51.1524
51.1314
51.1094
51.0863
51.0622
51.037
51.0109
50.9837
50.9554
50.9262
50.896
50.8648
50.8325
50.7994
50.7652
50.7301
50.6941
50.6571
50.6192
50.5804
50.5408
50.5002
50.4588
50.4165
50.3734
50.3295
50.2847
50.2392
50.1929
50.1459
50.0981
50.0495
50.0003
49.9504
49.8998
49.8485
49.7966
49.744
49.6909
49.6372
49.5829
49.528
49.4726
49.4167
49.3603
49.3034
49.2461
49.1883
49.1301
49.0714
49.0124
48.9531
48.8934
48.8333
48.773
48.7123
48.6514
48.5903
48.5289
48.4673
48.4055
48.3435
48.2814
48.2192
48.1568
48.0943
48.0318
47.9692
47.9066
47.8439
47.7812
47.7186
47.656
47.5934
47.5309
47.4685
47.4062
47.344
47.282
47.2201
47.1584
47.0969
47.0356
46.9745
46.9137
46.8531
46.7928
46.7328
46.673
46.6136
46.5546
46.4959
46.4375
46.3795
46.3219
46.2648
46.208
46.1517
46.0958
46.0403
45.9854
45.9309
45.8769
45.8234
45.7704
45.7179
45.666
45.6146
45.5638
45.5136
45.4639
45.4148
45.3663
45.3184
45.2711
45.2244
45.1783
45.1328
45.088
45.0439
45.0004
44.9575
44.9153
44.8738
44.8329
44.7927
44.7532
44.7143
44.6762
44.6387
44.6019
44.5658
44.5304
44.4957
44.4617
44.4284
44.3958
44.3639
44.3327
44.3023
44.2725
44.2434
44.215
44.1873
44.1603
44.134
44.1085
44.0836
44.0594
44.0358
44.013
43.9909
43.9694
43.9486
43.9285
43.9091
43.8903
43.8722
43.8547
43.8379
43.8218
43.8062
43.7914
43.7771
43.7635
43.7505
43.7381
43.7263
43.7151
43.7046
43.6946
43.6852
43.6763
43.6681
43.6603
43.6532
43.6466
43.6405
43.635
43.6299
43.6254
43.6214
43.6179
43.6149
43.6124
43.6103
43.6087
43.6076
43.6069
43.6067
43.6069
43.6075
43.6085
43.6099
43.6117
43.6139
43.6165
43.6195
43.6228
43.6264
43.6304
43.6348
43.6394
43.6444
43.6497
43.6552
43.6611
43.6672
43.6736
43.6803
43.6872
43.6944
43.7018
43.7094
43.7172
43.7252
43.7335
43.7419
43.7505
43.7592
43.7682
43.7772
43.7865
43.7958
43.8053
43.8149
43.8246
43.8344
43.8444
43.8543
43.8644
43.8746
43.8848
43.895
43.9053
43.9157
43.9261
43.9364
43.9469
43.9573
43.9677
43.9781
43.9885
43.9989
44.0092
44.0196
44.0298
44.0401
44.0502
44.0603
44.0704
44.0804
44.0902
44.1001
44.1098
44.1194
44.1289
44.1383
44.1476
44.1567
44.1658
44.1747
44.1835
44.1921
44.2006
44.2089
44.2171
44.2251
44.233
44.2407
44.2482
44.2556
44.2627
44.2697
44.2765
44.2831
44.2895
44.2957
44.3017
44.3075
44.3131
44.3185
44.3236
44.3286
44.3333
44.3378
44.3421
44.3462
44.35
44.3536
44.357
44.3601
44.363
44.3657
44.3681
44.3703
44.3723
44.374
44.3754
44.3767
44.3776
44.3784
44.3789
44.3791
51.2896
51.288
51.2846
51.2797
51.2732
51.2655
51.2564
51.2461
51.2347
51.2222
51.2086
51.1939
51.1782
51.1614
51.1435
51.1246
51.1046
51.0836
51.0615
51.0384
51.0142
50.989
50.9628
50.9356
50.9073
50.878
50.8478
50.8165
50.7843
50.751
50.7169
50.6817
50.6457
50.6087
50.5707
50.5319
50.4922
50.4516
50.4102
50.3679
50.3248
50.2808
50.236
50.1905
50.1442
50.0971
50.0493
50.0007
49.9515
49.9015
49.8509
49.7996
49.7476
49.6951
49.6419
49.5882
49.5338
49.479
49.4235
49.3676
49.3112
49.2543
49.1969
49.1391
49.0809
49.0222
48.9632
48.9038
48.8441
48.784
48.7237
48.663
48.6021
48.5409
48.4795
48.4179
48.3561
48.2941
48.232
48.1697
48.1073
48.0449
47.9823
47.9197
47.857
47.7944
47.7317
47.669
47.6064
47.5438
47.4813
47.4189
47.3566
47.2944
47.2323
47.1704
47.1087
47.0472
46.9859
46.9248
46.864
46.8034
46.743
46.683
46.6233
46.5639
46.5048
46.4461
46.3877
46.3298
46.2722
46.215
46.1582
46.1019
46.046
45.9906
45.9356
45.8811
45.8271
45.7736
45.7206
45.6682
45.6163
45.5649
45.5141
45.4638
45.4142
45.3651
45.3166
45.2686
45.2214
45.1747
45.1286
45.0832
45.0384
44.9942
44.9507
44.9079
44.8657
44.8242
44.7833
44.7431
44.7036
44.6648
44.6266
44.5892
44.5524
44.5164
44.481
44.4463
44.4123
44.3791
44.3465
44.3146
44.2834
44.253
44.2232
44.1941
44.1658
44.1381
44.1112
44.0849
44.0593
44.0345
44.0103
43.9868
43.964
43.9419
43.9204
43.8997
43.8796
43.8602
43.8414
43.8233
43.8059
43.7891
43.773
43.7575
43.7427
43.7285
43.7149
43.7019
43.6895
43.6778
43.6666
43.6561
43.6461
43.6367
43.6279
43.6197
43.612
43.6049
43.5983
43.5923
43.5867
43.5818
43.5773
43.5733
43.5698
43.5669
43.5644
43.5623
43.5608
43.5597
43.559
43.5588
43.559
43.5596
43.5607
43.5621
43.564
43.5662
43.5688
43.5718
43.5752
43.5789
43.5829
43.5872
43.5919
43.5969
43.6022
43.6078
43.6137
43.6199
43.6263
43.633
43.6399
43.6471
43.6545
43.6622
43.67
43.6781
43.6863
43.6948
43.7034
43.7122
43.7211
43.7302
43.7395
43.7488
43.7584
43.768
43.7777
43.7876
43.7975
43.8075
43.8176
43.8278
43.838
43.8483
43.8586
43.869
43.8793
43.8898
43.9002
43.9106
43.9211
43.9315
43.9419
43.9523
43.9627
43.973
43.9833
43.9935
44.0037
44.0139
44.0239
44.0339
44.0438
44.0536
44.0633
44.073
44.0825
44.0919
44.1012
44.1104
44.1194
44.1284
44.1372
44.1458
44.1543
44.1627
44.1708
44.1789
44.1867
44.1944
44.202
44.2093
44.2165
44.2235
44.2303
44.2369
44.2433
44.2495
44.2555
44.2613
44.2669
44.2723
44.2775
44.2824
44.2872
44.2917
44.296
44.3
44.3039
44.3075
44.3109
44.314
44.3169
44.3196
44.322
44.3242
44.3262
44.3279
44.3293
44.3306
44.3315
44.3323
44.3328
44.333
51.2288
51.2272
51.2238
51.2189
51.2125
51.2048
51.1957
51.1855
51.174
51.1615
51.1478
51.1331
51.1173
51.1004
51.0825
51.0635
51.0435
51.0224
51.0002
50.9771
50.9529
50.9276
50.9014
50.8741
50.8458
50.8165
50.7861
50.7548
50.7226
50.6893
50.6551
50.62
50.5839
50.5468
50.5089
50.47
50.4303
50.3897
50.3482
50.3059
50.2628
50.2188
50.174
50.1284
50.0821
50.035
49.9872
49.9386
49.8893
49.8393
49.7887
49.7374
49.6854
49.6329
49.5797
49.5259
49.4716
49.4167
49.3612
49.3053
49.2489
49.1919
49.1346
49.0767
49.0185
48.9598
48.9008
48.8414
48.7817
48.7216
48.6612
48.6006
48.5396
48.4784
48.417
48.3554
48.2936
48.2316
48.1695
48.1072
48.0448
47.9823
47.9197
47.8571
47.7945
47.7318
47.6691
47.6064
47.5438
47.4812
47.4187
47.3563
47.294
47.2318
47.1697
47.1078
47.0461
46.9846
46.9233
46.8622
46.8013
46.7408
46.6804
46.6204
46.5607
46.5013
46.4422
46.3835
46.3252
46.2672
46.2096
46.1524
46.0957
46.0393
45.9834
45.928
45.8731
45.8186
45.7646
45.7111
45.6582
45.6057
45.5538
45.5025
45.4517
45.4014
45.3518
45.3027
45.2542
45.2063
45.159
45.1124
45.0663
45.0209
44.9761
44.932
44.8885
44.8457
44.8035
44.762
44.7212
44.681
44.6415
44.6027
44.5646
44.5272
44.4904
44.4544
44.419
44.3844
44.3504
44.3172
44.2846
44.2528
44.2217
44.1912
44.1615
44.1324
44.1041
44.0765
44.0495
44.0233
43.9978
43.9729
43.9488
43.9253