/*--------------------------------*- C++ -*----------------------------------*\
| =========                 |                                                 |
| \\      /  F ield         | OpenFOAM: The Open Source CFD Toolbox           |
|  \\    /   O peration     | Version:  2212                                  |
|   \\  /    A nd           | Website:  www.openfoam.com                      |
|    \\/     M anipulation  |                                                 |
\*---------------------------------------------------------------------------*/
FoamFile
{
    version     2.0;
    format      ascii;
    arch        "LSB;label=32;scalar=64";
    class       volScalarField;
    location    "300";
    object      p_rgh;
}
// * * * * * * * * * * * * * * * * * * * * * * * * * * * * * * * * * * * * * //

dimensions      [1 -1 -2 0 0 0 0];

internalField   nonuniform List<scalar> 
204800
(
14.2154
14.2085
14.1954
14.1759
14.1503
14.1183
14.0803
14.0364
13.9869
13.9318
13.8716
13.8065
13.7368
13.6629
13.585
13.5035
13.4189
13.3313
13.2413
13.1492
13.0553
12.9599
12.8633
12.766
12.6681
12.57
12.4719
12.3741
12.2769
12.1804
12.0849
11.9907
11.8978
11.8066
11.7171
11.6296
11.5443
11.4612
11.3805
11.3023
11.2269
11.1542
11.0845
11.0178
10.9543
10.894
10.837
10.7834
10.7333
10.6868
10.6439
10.6046
10.5692
10.5375
10.5096
10.4856
10.4655
10.4493
10.4371
10.4288
10.4245
10.4242
10.4279
10.4355
10.4472
10.4628
10.4823
10.5058
10.5331
10.5644
10.5995
10.6384
10.6812
10.7276
10.7777
10.8315
10.8889
10.9499
11.0143
11.0822
11.1535
11.2281
11.306
11.3871
11.4713
11.5586
11.6489
11.7421
11.8382
11.9371
12.0387
12.1429
12.2498
12.3591
12.4709
12.5851
12.7015
12.8202
12.941
13.0639
13.1887
13.3155
13.4441
13.5745
13.7066
13.8403
13.9756
14.1124
14.2506
14.3901
14.531
14.673
14.8162
14.9605
15.1058
15.2521
15.3992
15.5472
15.696
15.8454
15.9956
16.1463
16.2976
16.4493
16.6015
16.7541
16.907
17.0602
17.2136
17.3672
17.5209
17.6747
17.8286
17.9825
18.1364
18.2901
18.4438
18.5973
18.7506
18.9036
19.0565
19.209
19.3611
19.513
19.6644
19.8154
19.9659
20.116
20.2655
20.4146
20.563
20.7109
20.8581
21.0048
21.1508
21.2961
21.4407
21.5846
21.7278
21.8702
22.0119
22.1528
22.2928
22.4321
22.5706
22.7082
22.8449
22.9808
23.1159
23.25
23.3832
23.5156
23.647
23.7775
23.907
24.0356
24.1633
24.29
24.4157
24.5405
24.6643
24.7872
24.909
25.0299
25.1497
25.2686
25.3865
25.5033
25.6192
25.734
25.8479
25.9607
26.0725
26.1833
26.2931
26.4019
26.5096
26.6164
26.7221
26.8268
26.9304
27.0331
27.1347
27.2354
27.335
27.4336
27.5312
27.6277
27.7233
27.8178
27.9114
28.0039
28.0955
28.186
28.2756
28.3641
28.4517
28.5382
28.6238
28.7084
28.792
28.8746
28.9563
29.037
29.1167
29.1954
29.2732
29.35
29.4258
29.5007
29.5747
29.6477
29.7198
29.7909
29.8611
29.9303
29.9986
30.066
30.1325
30.198
30.2626
30.3263
30.3891
30.451
30.512
30.5721
30.6313
30.6896
30.747
30.8035
30.8592
30.9139
30.9678
31.0208
31.0729
31.1242
31.1746
31.2242
31.2729
31.3207
31.3677
31.4138
31.4591
31.5036
31.5472
31.59
31.6319
31.6731
31.7134
31.7528
31.7915
31.8293
31.8663
31.9025
31.9379
31.9725
32.0063
32.0392
32.0714
32.1028
32.1334
32.1632
32.1921
32.2204
32.2478
32.2744
32.3002
32.3253
32.3496
32.3731
32.3958
32.4178
32.439
32.4594
32.479
32.4979
32.516
32.5334
32.5499
32.5658
32.5808
32.5951
32.6087
32.6214
32.6335
32.6447
32.6552
32.665
32.674
32.6823
32.6898
32.6965
32.7025
32.7078
32.7122
32.716
32.719
32.7212
32.7227
32.7235
14.2256
14.2184
14.2043
14.1832
14.1556
14.1213
14.0807
14.0339
13.9814
13.9234
13.8602
13.7923
13.7199
13.6436
13.5635
13.4801
13.3938
13.3049
13.2137
13.1206
13.026
12.93
12.8331
12.7355
12.6375
12.5393
12.4413
12.3436
12.2465
12.1501
12.0548
11.9608
11.8682
11.7771
11.6879
11.6006
11.5155
11.4326
11.3521
11.2742
11.199
11.1265
11.057
10.9905
10.9272
10.867
10.8102
10.7568
10.7068
10.6605
10.6177
10.5786
10.5432
10.5116
10.4839
10.46
10.44
10.4239
10.4117
10.4035
10.3993
10.3991
10.4028
10.4105
10.4221
10.4378
10.4573
10.4808
10.5082
10.5394
10.5745
10.6135
10.6561
10.7025
10.7527
10.8064
10.8637
10.9246
10.989
11.0568
11.128
11.2026
11.2803
11.3613
11.4454
11.5326
11.6228
11.7159
11.8118
11.9106
12.012
12.1162
12.2229
12.3321
12.4437
12.5577
12.6739
12.7924
12.913
13.0357
13.1604
13.287
13.4154
13.5456
13.6775
13.811
13.9461
14.0826
14.2206
14.3599
14.5005
14.6423
14.7853
14.9294
15.0744
15.2204
15.3673
15.5151
15.6636
15.8128
15.9627
16.1132
16.2642
16.4157
16.5676
16.7199
16.8726
17.0255
17.1786
17.332
17.4855
17.639
17.7926
17.9462
18.0998
18.2533
18.4067
18.5599
18.713
18.8658
19.0183
19.1705
19.3225
19.474
19.6251
19.7759
19.9261
20.0759
20.2252
20.374
20.5222
20.6698
20.8168
20.9631
21.1089
21.2539
21.3983
21.5419
21.6848
21.827
21.9684
22.109
22.2488
22.3879
22.526
22.6634
22.7999
22.9356
23.0703
23.2042
23.3372
23.4693
23.6004
23.7307
23.86
23.9884
24.1158
24.2423
24.3678
24.4923
24.6159
24.7385
24.8601
24.9807
25.1004
25.219
25.3367
25.4533
25.5689
25.6836
25.7972
25.9098
26.0214
26.132
26.2416
26.3501
26.4577
26.5642
26.6697
26.7742
26.8777
26.9802
27.0816
27.182
27.2815
27.3799
27.4773
27.5736
27.669
27.7634
27.8568
27.9491
28.0405
28.1309
28.2202
28.3086
28.396
28.4824
28.5678
28.6522
28.7357
28.8181
28.8996
28.9801
29.0597
29.1383
29.2159
29.2926
29.3683
29.443
29.5168
29.5897
29.6616
29.7326
29.8026
29.8717
29.9399
30.0072
30.0735
30.1389
30.2034
30.267
30.3297
30.3914
30.4523
30.5123
30.5713
30.6295
30.6868
30.7432
30.7988
30.8534
30.9072
30.9601
31.0121
31.0633
31.1136
31.1631
31.2117
31.2594
31.3063
31.3524
31.3976
31.4419
31.4855
31.5282
31.57
31.6111
31.6513
31.6907
31.7292
31.767
31.8039
31.8401
31.8754
31.9099
31.9436
31.9765
32.0086
32.0399
32.0705
32.1002
32.1291
32.1573
32.1846
32.2112
32.237
32.262
32.2863
32.3097
32.3324
32.3543
32.3755
32.3958
32.4154
32.4343
32.4524
32.4697
32.4862
32.502
32.517
32.5313
32.5448
32.5576
32.5696
32.5808
32.5913
32.601
32.61
32.6183
32.6257
32.6325
32.6385
32.6437
32.6482
32.6519
32.6549
32.6572
32.6587
32.6594
14.1997
14.1926
14.1787
14.1578
14.1304
14.0963
14.056
14.0096
13.9574
13.8997
13.837
13.7694
13.6975
13.6214
13.5417
13.4587
13.3728
13.2842
13.1933
13.1006
13.0062
12.9106
12.8139
12.7166
12.6188
12.5209
12.423
12.3255
12.2286
12.1325
12.0374
11.9436
11.8511
11.7603
11.6712
11.5841
11.4991
11.4164
11.3361
11.2584
11.1833
11.111
11.0416
10.9753
10.9121
10.8521
10.7954
10.7421
10.6923
10.646
10.6034
10.5644
10.5292
10.4978
10.4701
10.4463
10.4265
10.4105
10.3985
10.3904
10.3863
10.3861
10.39
10.3978
10.4096
10.4253
10.445
10.4686
10.4961
10.5274
10.5626
10.6016
10.6444
10.6909
10.7411
10.795
10.8524
10.9134
10.9779
11.0458
11.1171
11.1917
11.2696
11.3506
11.4348
11.5221
11.6124
11.7055
11.8016
11.9004
12.002
12.1062
12.213
12.3222
12.4339
12.548
12.6643
12.7829
12.9036
13.0263
13.151
13.2777
13.4062
13.5364
13.6684
13.8019
13.9371
14.0737
14.2117
14.3511
14.4917
14.6336
14.7766
14.9207
15.0658
15.2119
15.3588
15.5066
15.6551
15.8044
15.9543
16.1048
16.2558
16.4074
16.5593
16.7117
16.8643
17.0173
17.1704
17.3238
17.4773
17.6309
17.7845
17.9381
18.0917
18.2452
18.3986
18.5518
18.7049
18.8577
19.0102
19.1625
19.3144
19.4659
19.6171
19.7678
19.9181
20.0678
20.2171
20.3659
20.514
20.6616
20.8086
20.955
21.1007
21.2457
21.3901
21.5337
21.6766
21.8188
21.9601
22.1007
22.2406
22.3796
22.5177
22.6551
22.7916
22.9272
23.0619
23.1958
23.3288
23.4608
23.592
23.7222
23.8515
23.9798
24.1072
24.2337
24.3592
24.4837
24.6072
24.7298
24.8514
24.972
25.0916
25.2102
25.3278
25.4444
25.56
25.6747
25.7882
25.9008
26.0124
26.123
26.2325
26.341
26.4486
26.5551
26.6605
26.765
26.8685
26.9709
27.0723
27.1727
27.2721
27.3705
27.4679
27.5642
27.6596
27.7539
27.8472
27.9396
28.0309
28.1213
28.2106
28.2989
28.3863
28.4727
28.558
28.6424
28.7259
28.8083
28.8898
28.9703
29.0498
29.1283
29.2059
29.2826
29.3583
29.433
29.5068
29.5796
29.6515
29.7225
29.7925
29.8616
29.9297
29.9969
30.0633
30.1286
30.1931
30.2567
30.3193
30.3811
30.4419
30.5019
30.5609
30.6191
30.6764
30.7328
30.7883
30.8429
30.8967
30.9495
31.0016
31.0527
31.103
31.1524
31.201
31.2488
31.2956
31.3417
31.3869
31.4312
31.4747
31.5174
31.5593
31.6003
31.6405
31.6799
31.7184
31.7562
31.7931
31.8292
31.8645
31.899
31.9327
31.9656
31.9977
32.029
32.0595
32.0892
32.1181
32.1463
32.1736
32.2002
32.226
32.251
32.2752
32.2987
32.3213
32.3432
32.3644
32.3847
32.4043
32.4232
32.4412
32.4585
32.4751
32.4909
32.5059
32.5202
32.5337
32.5464
32.5584
32.5696
32.5801
32.5899
32.5989
32.6071
32.6146
32.6213
32.6273
32.6325
32.637
32.6407
32.6437
32.646
32.6475
32.6482
14.1756
14.1684
14.154
14.1325
14.1042
14.0691
14.0276
13.9799
13.9264
13.8675
13.8034
13.7346
13.6615
13.5844
13.5038
13.42
13.3333
13.2442
13.1529
13.0598
12.9653
12.8695
12.7729
12.6756
12.5779
12.4802
12.3825
12.2853
12.1887
12.0928
11.9981
11.9045
11.8124
11.7219
11.6332
11.5464
11.4618
11.3794
11.2994
11.222
11.1472
11.0752
11.0061
10.9401
10.8771
10.8174
10.761
10.708
10.6585
10.6125
10.5701
10.5313
10.4963
10.4651
10.4377
10.4141
10.3944
10.3787
10.3668
10.3589
10.355
10.355
10.359
10.367
10.3789
10.3948
10.4146
10.4383
10.466
10.4975
10.5328
10.5719
10.6148
10.6614
10.7117
10.7656
10.8232
10.8842
10.9488
11.0168
11.0881
11.1628
11.2407
11.3218
11.406
11.4933
11.5836
11.6768
11.7729
11.8717
11.9733
12.0775
12.1843
12.2935
12.4052
12.5193
12.6356
12.7541
12.8747
12.9975
13.1221
13.2487
13.3772
13.5074
13.6393
13.7728
13.9078
14.0444
14.1823
14.3216
14.4622
14.604
14.7469
14.8909
15.0359
15.1818
15.3287
15.4764
15.6248
15.7739
15.9237
16.0741
16.225
16.3764
16.5282
16.6804
16.833
16.9858
17.1388
17.292
17.4454
17.5988
17.7523
17.9057
18.0592
18.2125
18.3658
18.5188
18.6717
18.8244
18.9767
19.1288
19.2806
19.4319
19.5829
19.7335
19.8836
20.0332
20.1823
20.3308
20.4789
20.6263
20.7731
20.9193
21.0648
21.2096
21.3538
21.4973
21.64
21.782
21.9232
22.0636
22.2032
22.342
22.48
22.6172
22.7535
22.8889
23.0235
23.1572
23.29
23.4219
23.5528
23.6829
23.812
23.9401
24.0674
24.1936
24.3189
24.4433
24.5667
24.6891
24.8105
24.9309
25.0503
25.1688
25.2862
25.4027
25.5181
25.6325
25.746
25.8584
25.9698
26.0802
26.1896
26.298
26.4053
26.5116
26.617
26.7213
26.8246
26.9268
27.0281
27.1284
27.2276
27.3258
27.423
27.5192
27.6144
27.7086
27.8018
27.894
27.9852
28.0754
28.1646
28.2528
28.34
28.4263
28.5115
28.5958
28.6791
28.7614
28.8427
28.9231
29.0025
29.0809
29.1584
29.2349
29.3105
29.3851
29.4587
29.5314
29.6032
29.674
29.744
29.8129
29.881
29.9481
30.0143
30.0796
30.1439
30.2074
30.2699
30.3316
30.3923
30.4522
30.5111
30.5692
30.6264
30.6827
30.7381
30.7926
30.8463
30.8991
30.951
31.0021
31.0523
31.1017
31.1502
31.1978
31.2446
31.2906
31.3357
31.3799
31.4234
31.466
31.5078
31.5487
31.5889
31.6282
31.6667
31.7043
31.7412
31.7773
31.8125
31.847
31.8806
31.9134
31.9455
31.9767
32.0072
32.0368
32.0657
32.0938
32.1211
32.1476
32.1734
32.1983
32.2225
32.2459
32.2686
32.2904
32.3115
32.3319
32.3514
32.3702
32.3883
32.4055
32.422
32.4378
32.4528
32.467
32.4805
32.4932
32.5052
32.5164
32.5269
32.5366
32.5456
32.5538
32.5613
32.568
32.574
32.5792
32.5837
32.5874
32.5904
32.5926
32.5941
32.5949
14.1256
14.1184
14.1043
14.0832
14.0553
14.0207
13.9799
13.9329
13.8801
13.8219
13.7587
13.6907
13.6184
13.5421
13.4622
13.3791
13.2932
13.2047
13.1141
13.0216
12.9276
12.8324
12.7363
12.6395
12.5423
12.445
12.3478
12.2509
12.1547
12.0593
11.9649
11.8717
11.7799
11.6898
11.6014
11.515
11.4306
11.3486
11.2689
11.1918
11.1173
11.0456
10.9768
10.9111
10.8484
10.789
10.7328
10.6801
10.6308
10.5851
10.5429
10.5045
10.4697
10.4387
10.4116
10.3882
10.3688
10.3533
10.3417
10.334
10.3303
10.3306
10.3348
10.343
10.3552
10.3713
10.3913
10.4153
10.4431
10.4748
10.5104
10.5497
10.5928
10.6396
10.6901
10.7443
10.802
10.8633
10.928
10.9962
11.0678
11.1426
11.2208
11.3021
11.3865
11.474
11.5644
11.6578
11.7541
11.8531
11.9548
12.0592
12.1661
12.2756
12.3874
12.5016
12.6181
12.7368
12.8576
12.9804
13.1053
13.232
13.3606
13.4909
13.623
13.7566
13.8918
14.0285
14.1665
14.306
14.4466
14.5885
14.7316
14.8757
15.0208
15.1668
15.3138
15.4615
15.6101
15.7593
15.9092
16.0596
16.2106
16.3621
16.514
16.6663
16.8189
16.9717
17.1248
17.2781
17.4315
17.585
17.7385
17.892
18.0455
18.1989
18.3522
18.5053
18.6582
18.8109
18.9633
19.1154
19.2671
19.4185
19.5695
19.7201
19.8702
20.0198
20.1689
20.3175
20.4655
20.613
20.7598
20.906
21.0515
21.1963
21.3405
21.4839
21.6266
21.7686
21.9098
22.0502
22.1898
22.3286
22.4666
22.6038
22.74
22.8755
23.01
23.1437
23.2764
23.4083
23.5392
23.6692
23.7983
23.9265
24.0537
24.1799
24.3052
24.4295
24.5528
24.6752
24.7966
24.9169
25.0363
25.1548
25.2722
25.3886
25.504
25.6184
25.7318
25.8441
25.9555
26.0659
26.1752
26.2835
26.3908
26.4971
26.6024
26.7067
26.8099
26.9122
27.0134
27.1136
27.2128
27.311
27.4082
27.5043
27.5995
27.6936
27.7868
27.8789
27.9701
28.0602
28.1494
28.2376
28.3247
28.4109
28.4961
28.5804
28.6636
28.7459
28.8272
28.9075
28.9868
29.0652
29.1427
29.2191
29.2947
29.3692
29.4428
29.5155
29.5873
29.6581
29.7279
29.7969
29.8649
29.9319
29.9981
30.0634
30.1277
30.1911
30.2536
30.3152
30.3759
30.4358
30.4947
30.5527
30.6099
30.6661
30.7215
30.776
30.8296
30.8824
30.9343
30.9854
31.0355
31.0849
31.1333
31.1809
31.2277
31.2736
31.3187
31.363
31.4064
31.449
31.4907
31.5317
31.5718
31.6111
31.6495
31.6872
31.724
31.76
31.7953
31.8297
31.8633
31.8961
31.9282
31.9594
31.9898
32.0195
32.0483
32.0764
32.1037
32.1302
32.1559
32.1808
32.205
32.2284
32.251
32.2729
32.294
32.3143
32.3339
32.3526
32.3707
32.3879
32.4044
32.4202
32.4352
32.4494
32.4629
32.4756
32.4876
32.4988
32.5092
32.5189
32.5279
32.5361
32.5436
32.5503
32.5563
32.5615
32.566
32.5697
32.5727
32.5749
32.5764
32.5771
14.073
14.0659
14.0517
14.0304
14.0024
13.9676
13.9265
13.8793
13.8263
13.7679
13.7045
13.6363
13.5639
13.4875
13.4076
13.3246
13.2387
13.1503
13.0599
12.9676
12.8739
12.779
12.6831
12.5867
12.4899
12.393
12.2962
12.1998
12.104
12.009
11.9151
11.8224
11.7311
11.6414
11.5534
11.4675
11.3836
11.302
11.2227
11.146
11.072
11.0007
10.9323
10.867
10.8047
10.7456
10.6899
10.6375
10.5886
10.5432
10.5014
10.4633
10.4289
10.3982
10.3714
10.3484
10.3293
10.314
10.3027
10.2954
10.292
10.2925
10.2971
10.3055
10.318
10.3343
10.3546
10.3788
10.4069
10.4389
10.4747
10.5143
10.5576
10.6046
10.6554
10.7097
10.7677
10.8292
10.8941
10.9625
11.0342
11.1093
11.1876
11.2691
11.3537
11.4413
11.532
11.6255
11.7219
11.8211
11.923
12.0275
12.1346
12.2441
12.3561
12.4704
12.587
12.7058
12.8267
12.9497
13.0746
13.2014
13.3301
13.4605
13.5926
13.7263
13.8616
13.9983
14.1364
14.2759
14.4166
14.5586
14.7016
14.8458
14.9909
15.137
15.2839
15.4317
15.5802
15.7295
15.8793
16.0298
16.1808
16.3322
16.4841
16.6364
16.7889
16.9418
17.0948
17.2481
17.4014
17.5549
17.7083
17.8618
18.0152
18.1686
18.3218
18.4748
18.6277
18.7803
18.9326
19.0846
19.2363
19.3876
19.5386
19.689
19.8391
19.9886
20.1376
20.2861
20.434
20.5813
20.728
20.8741
21.0195
21.1643
21.3083
21.4517
21.5943
21.7361
21.8772
22.0175
22.157
22.2957
22.4335
22.5706
22.7067
22.842
22.9764
23.11
23.2426
23.3743
23.5052
23.635
23.764
23.892
24.0191
24.1452
24.2703
24.3945
24.5177
24.64
24.7612
24.8815
25.0007
25.119
25.2363
25.3526
25.4678
25.5821
25.6954
25.8076
25.9189
26.0291
26.1383
26.2465
26.3537
26.4598
26.565
26.6691
26.7723
26.8744
26.9755
27.0755
27.1746
27.2727
27.3697
27.4658
27.5608
27.6548
27.7479
27.8399
27.9309
28.021
28.11
28.1981
28.2851
28.3712
28.4563
28.5404
28.6235
28.7057
28.7869
28.8671
28.9463
29.0246
29.1019
29.1783
29.2537
29.3282
29.4017
29.4743
29.5459
29.6166
29.6864
29.7552
29.8231
29.8901
29.9562
30.0213
30.0856
30.1489
30.2113
30.2728
30.3335
30.3932
30.452
30.51
30.567
30.6232
30.6785
30.733
30.7865
30.8392
30.891
30.942
30.9921
31.0413
31.0897
31.1373
31.184
31.2298
31.2749
31.319
31.3624
31.4049
31.4466
31.4875
31.5275
31.5668
31.6052
31.6428
31.6795
31.7155
31.7507
31.7851
31.8186
31.8514
31.8834
31.9145
31.9449
31.9745
32.0033
32.0314
32.0586
32.0851
32.1108
32.1357
32.1598
32.1832
32.2058
32.2276
32.2486
32.2689
32.2884
32.3072
32.3252
32.3424
32.3589
32.3746
32.3896
32.4038
32.4173
32.43
32.4419
32.4531
32.4636
32.4733
32.4822
32.4904
32.4979
32.5046
32.5105
32.5157
32.5202
32.5239
32.5269
32.5291
32.5306
32.5314
14.0011
13.9942
13.9802
13.9595
13.932
13.898
13.8578
13.8115
13.7596
13.7023
13.6399
13.5729
13.5016
13.4263
13.3475
13.2655
13.1806
13.0932
13.0037
12.9123
12.8194
12.7252
12.6302
12.5344
12.4383
12.342
12.2459
12.1501
12.0549
11.9604
11.867
11.7749
11.6841
11.5949
11.5075
11.422
11.3386
11.2574
11.1786
11.1024
11.0288
10.9579
10.89
10.825
10.7632
10.7045
10.6492
10.5972
10.5487
10.5037
10.4623
10.4245
10.3905
10.3602
10.3337
10.3111
10.2923
10.2775
10.2665
10.2595
10.2565
10.2574
10.2623
10.2711
10.2839
10.3006
10.3212
10.3458
10.3742
10.4065
10.4426
10.4825
10.5262
10.5735
10.6246
10.6793
10.7376
10.7993
10.8646
10.9333
11.0054
11.0807
11.1593
11.2411
11.326
11.414
11.5049
11.5987
11.6954
11.7949
11.897
12.0018
12.1092
12.219
12.3312
12.4458
12.5627
12.6817
12.8029
12.9261
13.0512
13.1783
13.3072
13.4379
13.5702
13.7041
13.8396
13.9765
14.1149
14.2545
14.3955
14.5376
14.6808
14.8251
14.9705
15.1167
15.2638
15.4118
15.5605
15.7099
15.8599
16.0105
16.1616
16.3132
16.4652
16.6176
16.7703
16.9233
17.0764
17.2298
17.3832
17.5368
17.6903
17.8439
17.9974
18.1508
18.3041
18.4573
18.6102
18.7628
18.9152
19.0673
19.2191
19.3705
19.5214
19.6719
19.822
19.9716
20.1207
20.2692
20.4171
20.5645
20.7112
20.8573
21.0027
21.1475
21.2916
21.4349
21.5775
21.7194
21.8605
22.0008
22.1403
22.2789
22.4168
22.5538
22.69
22.8253
22.9597
23.0932
23.2258
23.3575
23.4883
23.6182
23.7471
23.8751
24.0021
24.1282
24.2533
24.3775
24.5007
24.6229
24.7441
24.8643
24.9835
25.1018
25.219
25.3352
25.4505
25.5647
25.6779
25.7901
25.9013
26.0115
26.1207
26.2288
26.336
26.4421
26.5472
26.6513
26.7544
26.8564
26.9575
27.0575
27.1565
27.2545
27.3515
27.4475
27.5425
27.6365
27.7295
27.8215
27.9124
28.0024
28.0914
28.1794
28.2664
28.3525
28.4375
28.5216
28.6046
28.6867
28.7679
28.848
28.9272
29.0055
29.0827
29.1591
29.2344
29.3089
29.3823
29.4549
29.5264
29.5971
29.6668
29.7356
29.8035
29.8704
29.9364
30.0015
30.0657
30.129
30.1914
30.2529
30.3135
30.3731
30.4319
30.4898
30.5469
30.603
30.6583
30.7127
30.7662
30.8188
30.8706
30.9215
30.9716
31.0208
31.0692
31.1167
31.1633
31.2092
31.2542
31.2983
31.3416
31.3841
31.4258
31.4666
31.5066
31.5458
31.5842
31.6218
31.6585
31.6945
31.7296
31.764
31.7975
31.8302
31.8622
31.8933
31.9237
31.9533
31.9821
32.0101
32.0373
32.0637
32.0894
32.1143
32.1384
32.1618
32.1843
32.2061
32.2272
32.2474
32.2669
32.2857
32.3037
32.3209
32.3373
32.3531
32.368
32.3822
32.3956
32.4083
32.4203
32.4315
32.4419
32.4516
32.4605
32.4687
32.4762
32.4829
32.4888
32.494
32.4985
32.5022
32.5052
32.5074
32.5089
32.5097
13.9248
13.9179
13.9041
13.8835
13.8563
13.8226
13.7827
13.7368
13.6853
13.6285
13.5666
13.5002
13.4294
13.3547
13.2765
13.1951
13.1108
13.024
12.9351
12.8444
12.7521
12.6586
12.5641
12.469
12.3735
12.2779
12.1824
12.0872
11.9926
11.8988
11.806
11.7144
11.6242
11.5356
11.4488
11.3639
11.281
11.2004
11.1222
11.0465
10.9734
10.9031
10.8357
10.7713
10.7099
10.6518
10.5969
10.5454
10.4974
10.4528
10.4119
10.3746
10.341
10.3112
10.2851
10.2629
10.2446
10.2302
10.2196
10.213
10.2104
10.2117
10.217
10.2262
10.2394
10.2565
10.2775
10.3024
10.3312
10.3639
10.4003
10.4406
10.4846
10.5324
10.5838
10.6388
10.6974
10.7596
10.8252
10.8942
10.9666
11.0422
11.1212
11.2033
11.2885
11.3767
11.4679
11.5621
11.659
11.7588
11.8612
11.9663
12.0739
12.184
12.2965
12.4113
12.5284
12.6477
12.7691
12.8925
13.0179
13.1452
13.2743
13.4052
13.5377
13.6718
13.8075
13.9446
14.0831
14.2229
14.364
14.5063
14.6497
14.7942
14.9396
15.086
15.2333
15.3814
15.5302
15.6797
15.8298
15.9805
16.1317
16.2834
16.4355
16.588
16.7407
16.8938
17.047
17.2004
17.3539
17.5075
17.6611
17.8147
17.9683
18.1217
18.275
18.4282
18.5811
18.7338
18.8862
19.0383
19.19
19.3414
19.4924
19.6429
19.7929
19.9425
20.0915
20.24
20.3879
20.5353
20.682
20.828
20.9734
21.1181
21.2621
21.4054
21.548
21.6898
21.8308
21.9711
22.1105
22.2491
22.3869
22.5238
22.6599
22.7951
22.9295
23.0629
23.1954
23.3271
23.4578
23.5876
23.7164
23.8443
23.9713
24.0973
24.2223
24.3464
24.4694
24.5915
24.7127
24.8328
24.9519
25.0701
25.1872
25.3033
25.4185
25.5326
25.6457
25.7578
25.8689
25.979
26.0881
26.1961
26.3032
26.4092
26.5142
26.6182
26.7212
26.8231
26.9241
27.024
27.1229
27.2208
27.3177
27.4136
27.5085
27.6024
27.6953
27.7871
27.878
27.9679
28.0568
28.1447
28.2316
28.3175
28.4025
28.4864
28.5694
28.6514
28.7325
28.8125
28.8916
28.9698
29.047
29.1232
29.1985
29.2728
29.3462
29.4186
29.4901
29.5607
29.6303
29.699
29.7668
29.8337
29.8996
29.9646
30.0287
30.0919
30.1542
30.2156
30.2761
30.3357
30.3945
30.4523
30.5092
30.5653
30.6205
30.6748
30.7283
30.7808
30.8326
30.8834
30.9334
30.9826
31.0309
31.0783
31.1249
31.1707
31.2156
31.2597
31.3029
31.3454
31.387
31.4277
31.4677
31.5068
31.5452
31.5827
31.6194
31.6553
31.6904
31.7247
31.7582
31.7909
31.8228
31.8539
31.8842
31.9137
31.9425
31.9705
31.9976
32.024
32.0497
32.0745
32.0986
32.1219
32.1445
32.1662
32.1872
32.2075
32.227
32.2457
32.2636
32.2808
32.2973
32.313
32.3279
32.3421
32.3555
32.3682
32.3801
32.3912
32.4017
32.4113
32.4203
32.4285
32.4359
32.4426
32.4485
32.4537
32.4582
32.4619
32.4649
32.4671
32.4686
32.4693
13.8334
13.8267
13.8133
13.7932
13.7667
13.7339
13.695
13.6502
13.5999
13.5443
13.4838
13.4186
13.3492
13.2758
13.1989
13.1188
13.0358
12.9502
12.8624
12.7728
12.6816
12.589
12.4956
12.4014
12.3067
12.2119
12.1172
12.0228
11.9289
11.8359
11.7438
11.6529
11.5634
11.4754
11.3892
11.305
11.2227
11.1427
11.0651
10.99
10.9175
10.8477
10.7809
10.717
10.6562
10.5986
10.5442
10.4932
10.4457
10.4017
10.3613
10.3245
10.2914
10.262
10.2365
10.2148
10.1969
10.1829
10.1729
10.1668
10.1646
10.1664
10.1721
10.1818
10.1954
10.213
10.2345
10.2598
10.2891
10.3222
10.3591
10.3998
10.4443
10.4925
10.5443
10.5998
10.6589
10.7214
10.7875
10.8569
10.9297
11.0058
11.0852
11.1677
11.2533
11.3419
11.4336
11.5281
11.6255
11.7256
11.8284
11.9339
12.0419
12.1523
12.2652
12.3804
12.4979
12.6175
12.7393
12.863
12.9888
13.1164
13.2458
13.377
13.5099
13.6443
13.7803
13.9177
14.0565
14.1966
14.338
14.4806
14.6242
14.769
14.9147
15.0613
15.2088
15.3571
15.5062
15.6559
15.8063
15.9572
16.1086
16.2605
16.4128
16.5655
16.7184
16.8717
17.0251
17.1786
17.3323
17.4861
17.6398
17.7936
17.9473
18.1009
18.2543
18.4076
18.5606
18.7134
18.866
19.0182
19.17
19.3215
19.4725
19.6231
19.7733
19.9229
20.072
20.2206
20.3685
20.5159
20.6627
20.8088
20.9542
21.099
21.2431
21.3864
21.529
21.6708
21.8119
21.9521
22.0916
22.2302
22.368
22.505
22.6411
22.7763
22.9106
23.0441
23.1766
23.3082
23.4389
23.5687
23.6975
23.8254
23.9524
24.0783
24.2033
24.3274
24.4504
24.5725
24.6936
24.8137
24.9328
25.0509
25.168
25.2841
25.3992
25.5133
25.6264
25.7385
25.8495
25.9596
26.0686
26.1766
26.2836
26.3896
26.4945
26.5985
26.7014
26.8033
26.9042
27.0041
27.103
27.2008
27.2977
27.3935
27.4884
27.5822
27.675
27.7668
27.8577
27.9475
28.0363
28.1242
28.211
28.2969
28.3818
28.4657
28.5486
28.6306
28.7116
28.7916
28.8706
28.9487
29.0259
29.102
29.1773
29.2515
29.3249
29.3972
29.4687
29.5392
29.6088
29.6774
29.7452
29.812
29.8779
29.9428
30.0069
30.07
30.1323
30.1936
30.2541
30.3137
30.3723
30.4301
30.487
30.543
30.5982
30.6524
30.7058
30.7584
30.8101
30.8609
30.9108
30.9599
31.0082
31.0556
31.1022
31.1479
31.1928
31.2368
31.28
31.3224
31.364
31.4047
31.4447
31.4838
31.5221
31.5595
31.5962
31.6321
31.6671
31.7014
31.7349
31.7675
31.7994
31.8305
31.8608
31.8903
31.919
31.947
31.9741
32.0005
32.0261
32.0509
32.075
32.0983
32.1208
32.1425
32.1635
32.1838
32.2032
32.2219
32.2399
32.257
32.2735
32.2891
32.304
32.3182
32.3316
32.3443
32.3562
32.3673
32.3778
32.3874
32.3963
32.4045
32.4119
32.4186
32.4246
32.4298
32.4342
32.4379
32.4409
32.4431
32.4446
32.4454
13.7368
13.7302
13.717
13.6973
13.6713
13.639
13.6007
13.5567
13.5072
13.4525
13.3929
13.3287
13.2602
13.1879
13.1119
13.0328
12.9508
12.8662
12.7794
12.6907
12.6004
12.5088
12.4162
12.3229
12.2291
12.1351
12.0412
11.9476
11.8545
11.7622
11.6709
11.5808
11.492
11.4048
11.3193
11.2357
11.1542
11.0749
10.9979
10.9235
10.8516
10.7825
10.7163
10.653
10.5928
10.5358
10.4821
10.4317
10.3848
10.3413
10.3015
10.2652
10.2327
10.2039
10.1789
10.1578
10.1404
10.127
10.1175
10.1119
10.1103
10.1126
10.1188
10.129
10.1431
10.1612
10.1832
10.2091
10.2388
10.2724
10.3098
10.351
10.396
10.4447
10.497
10.5529
10.6124
10.6755
10.742
10.8119
10.8851
10.9617
11.0415
11.1244
11.2105
11.2996
11.3916
11.4866
11.5844
11.6849
11.7881
11.894
12.0024
12.1132
12.2265
12.3421
12.4599
12.5799
12.702
12.8262
12.9522
13.0802
13.21
13.3415
13.4746
13.6094
13.7457
13.8834
14.0225
14.1629
14.3046
14.4474
14.5914
14.7363
14.8823
15.0292
15.1769
15.3255
15.4747
15.6247
15.7753
15.9264
16.078
16.2301
16.3826
16.5354
16.6885
16.8419
16.9955
17.1492
17.303
17.4569
17.6108
17.7647
17.9185
18.0722
18.2257
18.3791
18.5322
18.6851
18.8377
18.99
19.1419
19.2934
19.4446
19.5952
19.7454
19.8951
20.0442
20.1928
20.3408
20.4882
20.635
20.7812
20.9266
21.0714
21.2155
21.3588
21.5014
21.6432
21.7842
21.9245
22.0639
22.2025
22.3403
22.4773
22.6133
22.7485
22.8828
23.0162
23.1487
23.2803
23.411
23.5407
23.6695
23.7973
23.9242
24.0501
24.1751
24.299
24.422
24.5441
24.6651
24.7851
24.9042
25.0222
25.1392
25.2553
25.3703
25.4843
25.5973
25.7093
25.8203
25.9303
26.0392
26.1471
26.2541
26.3599
26.4648
26.5687
26.6715
26.7734
26.8742
26.974
27.0728
27.1705
27.2673
27.3631
27.4578
27.5515
27.6443
27.736
27.8268
27.9165
28.0053
28.093
28.1798
28.2656
28.3504
28.4342
28.5171
28.5989
28.6798
28.7598
28.8387
28.9167
28.9938
29.0699
29.145
29.2192
29.2925
29.3648
29.4361
29.5066
29.5761
29.6446
29.7123
29.779
29.8448
29.9097
29.9737
30.0368
30.099
30.1602
30.2206
30.2801
30.3387
30.3964
30.4533
30.5092
30.5643
30.6185
30.6718
30.7243
30.7759
30.8267
30.8766
30.9256
30.9738
31.0211
31.0676
31.1133
31.1581
31.2021
31.2453
31.2876
31.3291
31.3698
31.4097
31.4488
31.487
31.5244
31.5611
31.5969
31.6319
31.6661
31.6995
31.7322
31.764
31.795
31.8253
31.8548
31.8834
31.9113
31.9385
31.9648
31.9904
32.0152
32.0392
32.0625
32.085
32.1067
32.1276
32.1478
32.1673
32.1859
32.2038
32.221
32.2374
32.2531
32.268
32.2821
32.2955
32.3081
32.32
32.3312
32.3416
32.3512
32.3601
32.3683
32.3757
32.3824
32.3883
32.3935
32.398
32.4017
32.4046
32.4069
32.4083
32.4091
13.6283
13.6219
13.6091
13.5899
13.5646
13.5332
13.496
13.4531
13.4048
13.3514
13.2932
13.2304
13.1634
13.0925
13.018
12.9403
12.8597
12.7765
12.691
12.6036
12.5145
12.4241
12.3326
12.2404
12.1476
12.0547
11.9617
11.8691
11.7769
11.6855
11.595
11.5057
11.4177
11.3313
11.2466
11.1638
11.083
11.0044
10.9282
10.8544
10.7833
10.7149
10.6493
10.5867
10.5272
10.4709
10.4178
10.368
10.3217
10.2789
10.2397
10.2041
10.1721
10.144
10.1196
10.099
10.0823
10.0695
10.0605
10.0555
10.0545
10.0574
10.0642
10.075
10.0897
10.1083
10.1309
10.1573
10.1877
10.2218
10.2598
10.3016
10.3471
10.3963
10.4492
10.5057
10.5658
10.6294
10.6964
10.7669
10.8407
10.9178
10.9981
11.0816
11.1682
11.2578
11.3504
11.4458
11.5441
11.6452
11.7489
11.8553
11.9642
12.0755
12.1893
12.3053
12.4236
12.5441
12.6666
12.7912
12.9178
13.0462
13.1764
13.3083
13.4419
13.5771
13.7137
13.8519
13.9914
14.1322
14.2742
14.4174
14.5617
14.7071
14.8534
15.0006
15.1487
15.2975
15.4471
15.5974
15.7482
15.8997
16.0516
16.2039
16.3567
16.5098
16.6632
16.8168
16.9706
17.1246
17.2786
17.4327
17.5868
17.7409
17.8949
18.0488
18.2026
18.3561
18.5094
18.6625
18.8153
18.9677
19.1198
19.2714
19.4227
19.5735
19.7238
19.8736
20.0228
20.1715
20.3197
20.4672
20.614
20.7603
20.9058
21.0507
21.1948
21.3382
21.4808
21.6227
21.7638
21.9041
22.0436
22.1823
22.3201
22.4571
22.5932
22.7284
22.8627
22.9961
23.1286
23.2602
23.3909
23.5206
23.6494
23.7773
23.9042
24.0301
24.155
24.279
24.402
24.524
24.645
24.765
24.884
25.0021
25.1191
25.2351
25.3501
25.4641
25.577
25.689
25.8
25.9099
26.0188
26.1267
26.2336
26.3394
26.4442
26.5481
26.6509
26.7526
26.8534
26.9532
27.0519
27.1496
27.2463
27.342
27.4367
27.5304
27.6231
27.7148
27.8055
27.8952
27.9839
28.0716
28.1583
28.2441
28.3288
28.4126
28.4954
28.5772
28.658
28.7379
28.8168
28.8948
28.9718
29.0478
29.1229
29.197
29.2702
29.3425
29.4138
29.4841
29.5536
29.6221
29.6897
29.7564
29.8221
29.887
29.9509
30.0139
30.0761
30.1373
30.1976
30.2571
30.3156
30.3733
30.4301
30.486
30.541
30.5951
30.6484
30.7009
30.7524
30.8031
30.853
30.902
30.9501
30.9974
31.0439
31.0895
31.1343
31.1782
31.2214
31.2637
31.3051
31.3458
31.3856
31.4246
31.4628
31.5002
31.5368
31.5726
31.6076
31.6418
31.6752
31.7078
31.7396
31.7706
31.8008
31.8302
31.8589
31.8868
31.9139
31.9402
31.9657
31.9905
32.0145
32.0377
32.0602
32.0819
32.1028
32.123
32.1424
32.1611
32.179
32.1961
32.2125
32.2281
32.243
32.2571
32.2705
32.2831
32.295
32.3062
32.3165
32.3262
32.3351
32.3432
32.3506
32.3573
32.3632
32.3684
32.3729
32.3766
32.3795
32.3818
32.3832
32.384
13.5142
13.508
13.4954
13.4767
13.4519
13.4212
13.3848
13.3428
13.2955
13.2432
13.1861
13.1245
13.0587
12.989
12.9158
12.8393
12.7599
12.6779
12.5936
12.5074
12.4195
12.3302
12.2398
12.1486
12.0569
11.965
11.873
11.7813
11.6901
11.5996
11.51
11.4215
11.3344
11.2489
11.165
11.083
11.003
10.9253
10.8498
10.7768
10.7065
10.6388
10.574
10.5122
10.4534
10.3977
10.3454
10.2963
10.2507
10.2086
10.1701
10.1351
10.1039
10.0764
10.0527
10.0328
10.0167
10.0045
9.99626
9.99191
9.99149
9.99502
10.0025
10.0139
10.0292
10.0485
10.0717
10.0988
10.1297
10.1645
10.2031
10.2455
10.2916
10.3415
10.3949
10.452
10.5127
10.5769
10.6445
10.7156
10.7899
10.8676
10.9485
11.0326
11.1197
11.2099
11.303
11.3991
11.4979
11.5995
11.7038
11.8107
11.9201
12.0319
12.1462
12.2628
12.3815
12.5025
12.6256
12.7506
12.8776
13.0065
13.1371
13.2695
13.4035
13.5391
13.6763
13.8148
13.9547
14.0959
14.2383
14.3819
14.5266
14.6723
14.819
14.9666
15.115
15.2642
15.4141
15.5646
15.7158
15.8675
16.0198
16.1724
16.3254
16.4788
16.6324
16.7863
16.9403
17.0945
17.2488
17.4031
17.5575
17.7118
17.866
18.02
18.174
18.3277
18.4812
18.6344
18.7873
18.9399
19.0921
19.2439
19.3953
19.5462
19.6966
19.8465
19.9959
20.1447
20.2929
20.4404
20.5874
20.7337
20.8793
21.0242
21.1684
21.3119
21.4546
21.5965
21.7376
21.878
22.0175
22.1561
22.294
22.431
22.5671
22.7023
22.8366