/*--------------------------------*- C++ -*----------------------------------*\
| =========                 |                                                 |
| \\      /  F ield         | OpenFOAM: The Open Source CFD Toolbox           |
|  \\    /   O peration     | Version:  2212                                  |
|   \\  /    A nd           | Website:  www.openfoam.com                      |
|    \\/     M anipulation  |                                                 |
\*---------------------------------------------------------------------------*/
FoamFile
{
    version     2.0;
    format      ascii;
    arch        "LSB;label=32;scalar=64";
    class       volScalarField;
    location    "570";
    object      p_rgh;
}
// * * * * * * * * * * * * * * * * * * * * * * * * * * * * * * * * * * * * * //

dimensions      [1 -1 -2 0 0 0 0];

internalField   nonuniform List<scalar> 
204800
(
42.5075
42.5003
42.4861
42.4648
42.4363
42.4006
42.358
42.3085
42.2525
42.1902
42.1219
42.0481
41.9687
41.8842
41.7947
41.7003
41.6013
41.4977
41.3897
41.2774
41.1611
41.0407
40.9165
40.7886
40.657
40.5221
40.3838
40.2424
40.0979
39.9505
39.8003
39.6475
39.4922
39.3346
39.1747
39.0127
38.8488
38.683
38.5156
38.3465
38.1761
38.0043
37.8313
37.6573
37.4824
37.3066
37.1302
36.9531
36.7757
36.5978
36.4198
36.2417
36.0635
35.8855
35.7076
35.5301
35.353
35.1764
35.0005
34.8252
34.6508
34.4772
34.3047
34.1332
33.9628
33.7937
33.6259
33.4595
33.2946
33.1312
32.9694
32.8093
32.6509
32.4943
32.3395
32.1867
32.0358
31.887
31.7402
31.5955
31.453
31.3126
31.1746
31.0387
30.9052
30.7741
30.6453
30.5189
30.395
30.2735
30.1545
30.038
29.924
29.8125
29.7036
29.5972
29.4934
29.3922
29.2935
29.1974
29.1039
29.013
28.9247
28.839
28.7558
28.6752
28.5972
28.5217
28.4488
28.3784
28.3105
28.2452
28.1823
28.122
28.0641
28.0086
27.9556
27.9049
27.8567
27.8108
27.7672
27.726
27.6871
27.6504
27.6159
27.5837
27.5537
27.5258
27.5
27.4764
27.4548
27.4352
27.4177
27.4021
27.3885
27.3768
27.3669
27.359
27.3528
27.3485
27.3459
27.345
27.3458
27.3483
27.3523
27.358
27.3653
27.3741
27.3843
27.396
27.4092
27.4238
27.4397
27.4569
27.4755
27.4953
27.5163
27.5386
27.562
27.5865
27.6122
27.639
27.6668
27.6956
27.7254
27.7561
27.7878
27.8204
27.8538
27.8881
27.9232
27.9591
27.9957
28.0331
28.0711
28.1099
28.1493
28.1893
28.2298
28.271
28.3127
28.355
28.3977
28.4409
28.4845
28.5286
28.573
28.6179
28.6631
28.7086
28.7545
28.8007
28.8471
28.8937
28.9407
28.9878
29.0351
29.0826
29.1302
29.178
29.2259
29.2739
29.322
29.3701
29.4183
29.4665
29.5148
29.563
29.6113
29.6595
29.7076
29.7557
29.8038
29.8517
29.8996
29.9473
29.9949
30.0424
30.0897
30.1369
30.1839
30.2307
30.2773
30.3236
30.3698
30.4157
30.4614
30.5069
30.5521
30.597
30.6416
30.6859
30.73
30.7737
30.8171
30.8602
30.903
30.9454
30.9875
31.0292
31.0706
31.1115
31.1521
31.1924
31.2322
31.2716
31.3107
31.3493
31.3875
31.4253
31.4626
31.4995
31.536
31.5721
31.6077
31.6428
31.6775
31.7117
31.7455
31.7788
31.8116
31.8439
31.8758
31.9071
31.938
31.9684
31.9982
32.0276
32.0565
32.0849
32.1127
32.1401
32.1669
32.1932
32.219
32.2442
32.2689
32.2931
32.3168
32.3399
32.3625
32.3846
32.4061
32.427
32.4475
32.4673
32.4867
32.5054
32.5237
32.5413
32.5584
32.575
32.591
32.6064
32.6213
32.6356
32.6494
32.6625
32.6752
32.6872
32.6987
32.7096
32.72
32.7297
32.7389
32.7476
32.7556
32.7631
32.77
32.7764
32.7821
32.7873
32.792
32.796
32.7995
32.8023
32.8046
32.8064
32.8075
32.8081
42.4554
42.4465
42.4292
42.4039
42.3711
42.3314
42.2852
42.2329
42.1747
42.1109
42.0415
41.9669
41.8871
41.8023
41.7126
41.6182
41.5192
41.4156
41.3077
41.1956
41.0794
40.9592
40.8351
40.7073
40.576
40.4413
40.3032
40.162
40.0177
39.8705
39.7206
39.5681
39.413
39.2556
39.096
38.9343
38.7706
38.6052
38.438
38.2692
38.0991
37.9276
37.7549
37.5812
37.4066
37.2311
37.055
36.8782
36.7011
36.5236
36.3458
36.168
35.9902
35.8124
35.6349
35.4577
35.281
35.1047
34.9291
34.7541
34.58
34.4068
34.2345
34.0633
33.8933
33.7245
33.557
33.3909
33.2263
33.0632
32.9017
32.7419
32.5838
32.4275
32.273
32.1205
31.9699
31.8213
31.6748
31.5304
31.3881
31.2481
31.1103
30.9747
30.8415
30.7106
30.5821
30.4559
30.3322
30.211
30.0922
29.9759
29.8621
29.7509
29.6422
29.536
29.4324
29.3314
29.2329
29.137
29.0437
28.953
28.8649
28.7793
28.6963
28.6159
28.538
28.4627
28.39
28.3197
28.252
28.1868
28.1241
28.0639
28.0061
27.9508
27.8978
27.8473
27.7992
27.7534
27.71
27.6688
27.63
27.5934
27.559
27.5269
27.4969
27.4691
27.4434
27.4198
27.3983
27.3788
27.3613
27.3458
27.3322
27.3205
27.3108
27.3028
27.2967
27.2924
27.2898
27.289
27.2898
27.2923
27.2964
27.3021
27.3093
27.3181
27.3284
27.3401
27.3533
27.3678
27.3837
27.4009
27.4195
27.4393
27.4603
27.4825
27.5059
27.5304
27.5561
27.5828
27.6106
27.6393
27.6691
27.6998
27.7315
27.764
27.7974
27.8316
27.8667
27.9025
27.9391
27.9764
28.0144
28.0531
28.0924
28.1323
28.1729
28.214
28.2556
28.2978
28.3405
28.3836
28.4272
28.4712
28.5156
28.5603
28.6055
28.6509
28.6967
28.7428
28.7891
28.8357
28.8826
28.9296
28.9769
29.0243
29.0718
29.1195
29.1673
29.2153
29.2633
29.3113
29.3594
29.4076
29.4558
29.5039
29.5521
29.6002
29.6483
29.6963
29.7443
29.7921
29.8399
29.8876
29.9351
29.9825
30.0297
30.0768
30.1237
30.1704
30.2169
30.2632
30.3093
30.3552
30.4008
30.4462
30.4913
30.5361
30.5807
30.6249
30.6689
30.7125
30.7559
30.7989
30.8416
30.8839
30.9259
30.9676
31.0089
31.0498
31.0903
31.1304
31.1702
31.2096
31.2485
31.2871
31.3252
31.3629
31.4002
31.4371
31.4735
31.5095
31.545
31.5801
31.6147
31.6489
31.6826
31.7158
31.7486
31.7808
31.8126
31.8439
31.8747
31.9051
31.9349
31.9642
31.993
32.0213
32.0492
32.0764
32.1032
32.1295
32.1552
32.1804
32.2051
32.2292
32.2529
32.276
32.2985
32.3205
32.342
32.3629
32.3833
32.4031
32.4224
32.4412
32.4594
32.477
32.4941
32.5106
32.5266
32.542
32.5568
32.5711
32.5848
32.598
32.6106
32.6226
32.6341
32.645
32.6553
32.6651
32.6742
32.6829
32.6909
32.6984
32.7053
32.7116
32.7174
32.7225
32.7272
32.7312
32.7346
32.7375
32.7398
32.7416
32.7427
32.7433
42.4402
42.4315
42.4142
42.3891
42.3564
42.3169
42.2707
42.2184
42.1602
42.0963
42.0268
41.9521
41.8722
41.7872
41.6974
41.6029
41.5037
41.4
41.292
41.1798
41.0634
40.9431
40.819
40.6911
40.5597
40.4249
40.2867
40.1454
40.0011
39.8539
39.7039
39.5513
39.3962
39.2388
39.0791
38.9174
38.7536
38.5881
38.4209
38.2521
38.0819
37.9104
37.7377
37.564
37.3893
37.2138
37.0377
36.8609
36.6837
36.5062
36.3285
36.1506
35.9728
35.7951
35.6175
35.4403
35.2636
35.0873
34.9117
34.7367
34.5626
34.3894
34.2171
34.046
33.8759
33.7072
33.5397
33.3736
33.209
33.0459
32.8844
32.7246
32.5666
32.4103
32.2558
32.1033
31.9528
31.8042
31.6577
31.5134
31.3711
31.2311
31.0933
30.9578
30.8246
30.6938
30.5653
30.4392
30.3155
30.1943
30.0756
29.9593
29.8456
29.7344
29.6257
29.5196
29.4161
29.3151
29.2167
29.1208
29.0276
28.9369
28.8488
28.7633
28.6803
28.6
28.5222
28.4469
28.3742
28.304
28.2363
28.1712
28.1085
28.0483
27.9906
27.9353
27.8824
27.832
27.7839
27.7381
27.6948
27.6537
27.6149
27.5783
27.544
27.5119
27.482
27.4542
27.4286
27.405
27.3836
27.3641
27.3467
27.3312
27.3177
27.306
27.2963
27.2884
27.2823
27.2781
27.2755
27.2747
27.2756
27.2781
27.2823
27.288
27.2953
27.3041
27.3144
27.3262
27.3394
27.3539
27.3699
27.3872
27.4057
27.4255
27.4466
27.4689
27.4923
27.5169
27.5425
27.5693
27.5971
27.6259
27.6557
27.6864
27.7181
27.7506
27.7841
27.8183
27.8534
27.8893
27.9259
27.9632
28.0012
28.0399
28.0793
28.1192
28.1598
28.2009
28.2426
28.2848
28.3274
28.3706
28.4142
28.4582
28.5026
28.5474
28.5926
28.6381
28.6839
28.7299
28.7763
28.8229
28.8698
28.9168
28.9641
29.0115
29.0591
29.1068
29.1546
29.2025
29.2505
29.2986
29.3467
29.3949
29.4431
29.4913
29.5394
29.5876
29.6356
29.6837
29.7316
29.7795
29.8273
29.8749
29.9225
29.9699
30.0171
30.0642
30.1111
30.1578
30.2043
30.2507
30.2967
30.3426
30.3882
30.4336
30.4787
30.5235
30.5681
30.6124
30.6563
30.7
30.7433
30.7863
30.829
30.8714
30.9134
30.955
30.9963
31.0372
31.0777
31.1179
31.1576
31.197
31.236
31.2745
31.3127
31.3504
31.3877
31.4245
31.4609
31.4969
31.5324
31.5675
31.6022
31.6363
31.67
31.7032
31.736
31.7683
31.8
31.8313
31.8622
31.8925
31.9223
31.9516
31.9804
32.0088
32.0366
32.0638
32.0906
32.1169
32.1426
32.1678
32.1925
32.2166
32.2403
32.2633
32.2859
32.3079
32.3294
32.3503
32.3707
32.3905
32.4098
32.4285
32.4467
32.4644
32.4814
32.498
32.5139
32.5293
32.5442
32.5585
32.5722
32.5853
32.5979
32.61
32.6214
32.6323
32.6427
32.6524
32.6616
32.6702
32.6783
32.6857
32.6926
32.699
32.7047
32.7099
32.7145
32.7185
32.722
32.7249
32.7272
32.7289
32.73
32.7306
42.3864
42.3772
42.3587
42.3321
42.2976
42.2562
42.2083
42.1544
42.0948
42.0297
41.9594
41.8839
41.8033
41.7179
41.6278
41.5329
41.4335
41.3297
41.2216
41.1092
40.9928
40.8725
40.7483
40.6205
40.4891
40.3543
40.2162
40.075
39.9307
39.7835
39.6336
39.4811
39.3261
39.1688
39.0093
38.8476
38.684
38.5187
38.3516
38.1829
38.0129
37.8415
37.669
37.4954
37.3209
37.1456
36.9696
36.7931
36.6161
36.4387
36.2612
36.0835
35.9059
35.7283
35.551
35.374
35.1974
35.0214
34.846
34.6712
34.4973
34.3243
34.1523
33.9813
33.8115
33.643
33.4757
33.3098
33.1454
32.9826
32.8213
32.6617
32.5039
32.3478
32.1936
32.0413
31.891
31.7426
31.5964
31.4522
31.3102
31.1704
31.0328
30.8975
30.7645
30.6339
30.5056
30.3797
30.2563
30.1352
30.0167
29.9007
29.7871
29.6761
29.5676
29.4617
29.3583
29.2575
29.1593
29.0637
28.9706
28.8801
28.7922
28.7068
28.6241
28.5439
28.4662
28.3911
28.3186
28.2485
28.181
28.116
28.0535
27.9935
27.9359
27.8807
27.828
27.7777
27.7297
27.6841
27.6408
27.5999
27.5612
27.5248
27.4906
27.4586
27.4288
27.4011
27.3756
27.3521
27.3307
27.3114
27.294
27.2787
27.2652
27.2537
27.244
27.2362
27.2302
27.226
27.2235
27.2228
27.2237
27.2263
27.2305
27.2363
27.2437
27.2525
27.2629
27.2747
27.2879
27.3026
27.3186
27.3359
27.3545
27.3743
27.3954
27.4177
27.4412
27.4658
27.4914
27.5182
27.546
27.5748
27.6047
27.6354
27.6671
27.6997
27.7331
27.7674
27.8024
27.8383
27.8749
27.9122
27.9503
27.989
28.0283
28.0683
28.1088
28.1499
28.1916
28.2337
28.2764
28.3195
28.3631
28.4071
28.4515
28.4963
28.5414
28.5869
28.6326
28.6787
28.725
28.7716
28.8184
28.8655
28.9127
28.9601
29.0076
29.0553
29.1031
29.151
29.199
29.247
29.2951
29.3432
29.3913
29.4395
29.4876
29.5357
29.5838
29.6317
29.6797
29.7275
29.7752
29.8228
29.8703
29.9177
29.9649
30.0119
30.0588
30.1055
30.1519
30.1982
30.2443
30.2901
30.3356
30.381
30.426
30.4708
30.5153
30.5596
30.6035
30.6471
30.6904
30.7334
30.776
30.8183
30.8603
30.9019
30.9431
30.984
31.0245
31.0646
31.1043
31.1436
31.1825
31.221
31.2591
31.2968
31.334
31.3709
31.4072
31.4432
31.4787
31.5137
31.5483
31.5824
31.6161
31.6493
31.682
31.7142
31.746
31.7772
31.808
31.8383
31.8681
31.8974
31.9261
31.9544
31.9822
32.0094
32.0362
32.0624
32.0881
32.1133
32.1379
32.1621
32.1856
32.2087
32.2312
32.2532
32.2747
32.2956
32.3159
32.3357
32.355
32.3737
32.3919
32.4095
32.4265
32.443
32.459
32.4744
32.4892
32.5035
32.5172
32.5303
32.5429
32.5549
32.5664
32.5772
32.5876
32.5973
32.6065
32.6151
32.6231
32.6306
32.6375
32.6438
32.6495
32.6547
32.6593
32.6633
32.6668
32.6697
32.672
32.6737
32.6748
32.6754
42.3608
42.3518
42.3336
42.3073
42.2732
42.2321
42.1844
42.1306
42.071
42.0058
41.9353
41.8596
41.7788
41.6932
41.6028
41.5077
41.4081
41.304
41.1956
41.0831
40.9665
40.8459
40.7216
40.5935
40.462
40.327
40.1887
40.0473
39.9029
39.7556
39.6056
39.4529
39.2978
39.1404
38.9807
38.819
38.6553
38.4898
38.3226
38.1539
37.9838
37.8123
37.6397
37.466
37.2915
37.1161
36.94
36.7634
36.5864
36.409
36.2314
36.0537
35.876
35.6984
35.5211
35.3441
35.1675
34.9914
34.8159
34.6412
34.4673
34.2943
34.1222
33.9513
33.7815
33.6129
33.4457
33.2798
33.1154
32.9526
32.7913
32.6318
32.4739
32.3179
32.1637
32.0115
31.8612
31.7129
31.5666
31.4225
31.2806
31.1408
31.0033
30.868
30.7351
30.6045
30.4763
30.3505
30.2271
30.1061
29.9877
29.8717
29.7582
29.6473
29.5389
29.433
29.3297
29.229
29.1309
29.0353
28.9423
28.8519
28.764
28.6788
28.5961
28.516
28.4384
28.3634
28.2909
28.221
28.1536
28.0887
28.0263
27.9663
27.9088
27.8538
27.8011
27.7509
27.703
27.6575
27.6143
27.5735
27.5349
27.4985
27.4644
27.4325
27.4028
27.3753
27.3498
27.3265
27.3052
27.2859
27.2686
27.2533
27.24
27.2285
27.219
27.2112
27.2053
27.2012
27.1988
27.1982
27.1992
27.2019
27.2062
27.212
27.2195
27.2284
27.2388
27.2507
27.264
27.2787
27.2948
27.3122
27.3309
27.3508
27.372
27.3943
27.4178
27.4425
27.4683
27.4951
27.523
27.5519
27.5817
27.6125
27.6443
27.6769
27.7104
27.7447
27.7799
27.8158
27.8525
27.8898
27.9279
27.9667
28.0061
28.0461
28.0867
28.1278
28.1695
28.2117
28.2545
28.2976
28.3412
28.3853
28.4297
28.4745
28.5197
28.5652
28.611
28.6571
28.7035
28.7501
28.797
28.844
28.8913
28.9387
28.9863
29.034
29.0818
29.1297
29.1777
29.2258
29.2739
29.3221
29.3702
29.4184
29.4665
29.5147
29.5627
29.6107
29.6587
29.7065
29.7543
29.8019
29.8494
29.8968
29.944
29.9911
30.038
30.0846
30.1311
30.1774
30.2235
30.2693
30.3149
30.3602
30.4053
30.4501
30.4946
30.5389
30.5828
30.6264
30.6697
30.7127
30.7554
30.7977
30.8396
30.8812
30.9225
30.9633
31.0038
31.044
31.0837
31.123
31.1619
31.2004
31.2385
31.2762
31.3135
31.3503
31.3867
31.4226
31.4581
31.4931
31.5277
31.5619
31.5955
31.6287
31.6614
31.6937
31.7254
31.7567
31.7875
31.8177
31.8475
31.8768
31.9056
31.9339
31.9616
31.9889
32.0156
32.0419
32.0676
32.0927
32.1174
32.1415
32.1651
32.1882
32.2107
32.2327
32.2541
32.275
32.2954
32.3152
32.3344
32.3532
32.3713
32.3889
32.406
32.4225
32.4384
32.4538
32.4686
32.4829
32.4966
32.5098
32.5223
32.5344
32.5458
32.5567
32.567
32.5767
32.5859
32.5945
32.6026
32.61
32.6169
32.6232
32.629
32.6341
32.6387
32.6428
32.6462
32.6491
32.6514
32.6531
32.6543
32.6548
42.3077
42.2985
42.28
42.2532
42.2185
42.1767
42.1281
42.0735
42.0131
41.9471
41.8759
41.7995
41.7182
41.632
41.5412
41.4457
41.3457
41.2413
41.1327
41.0199
40.903
40.7823
40.6578
40.5296
40.3979
40.2628
40.1245
39.983
39.8385
39.6911
39.541
39.3884
39.2332
39.0757
38.916
38.7543
38.5906
38.4251
38.2579
38.0892
37.9191
37.7477
37.5751
37.4015
37.227
37.0517
36.8757
36.6991
36.5221
36.3448
36.1673
35.9897
35.8121
35.6346
35.4574
35.2804
35.104
34.928
34.7527
34.578
34.4042
34.2313
34.0594
33.8886
33.7189
33.5505
33.3834
33.2177
33.0535
32.8908
32.7297
32.5703
32.4126
32.2567
32.1027
31.9506
31.8004
31.6523
31.5063
31.3623
31.2205
31.0809
30.9436
30.8085
30.6758
30.5453
30.4173
30.2916
30.1684
30.0477
29.9294
29.8136
29.7003
29.5895
29.4813
29.3756
29.2725
29.172
29.074
28.9786
28.8858
28.7955
28.7079
28.6228
28.5403
28.4603
28.3829
28.3081
28.2358
28.166
28.0988
28.034
27.9718
27.912
27.8547
27.7998
27.7473
27.6972
27.6495
27.6041
27.5611
27.5204
27.482
27.4458
27.4118
27.3801
27.3505
27.3231
27.2978
27.2745
27.2534
27.2342
27.2171
27.2019
27.1887
27.1774
27.1679
27.1603
27.1546
27.1505
27.1483
27.1477
27.1489
27.1516
27.156
27.162
27.1695
27.1786
27.1891
27.2011
27.2145
27.2293
27.2454
27.2629
27.2817
27.3017
27.3229
27.3454
27.369
27.3937
27.4195
27.4464
27.4744
27.5033
27.5333
27.5641
27.5959
27.6286
27.6622
27.6966
27.7317
27.7677
27.8044
27.8418
27.88
27.9188
27.9582
27.9982
28.0389
28.0801
28.1218
28.164
28.2068
28.25
28.2936
28.3377
28.3822
28.427
28.4722
28.5177
28.5635
28.6097
28.656
28.7027
28.7495
28.7966
28.8439
28.8913
28.9389
28.9866
29.0344
29.0824
29.1304
29.1784
29.2266
29.2747
29.3229
29.371
29.4192
29.4673
29.5154
29.5634
29.6113
29.6591
29.7069
29.7545
29.802
29.8494
29.8966
29.9436
29.9905
30.0372
30.0837
30.1299
30.176
30.2218
30.2674
30.3127
30.3577
30.4025
30.447
30.4912
30.5352
30.5788
30.6221
30.665
30.7076
30.7499
30.7919
30.8335
30.8747
30.9155
30.956
30.9961
31.0358
31.0751
31.114
31.1525
31.1906
31.2283
31.2655
31.3023
31.3387
31.3746
31.41
31.4451
31.4796
31.5137
31.5474
31.5805
31.6132
31.6455
31.6772
31.7084
31.7392
31.7695
31.7992
31.8285
31.8573
31.8855
31.9133
31.9405
31.9672
31.9934
32.0191
32.0443
32.0689
32.093
32.1166
32.1396
32.1621
32.1841
32.2055
32.2264
32.2468
32.2666
32.2858
32.3045
32.3227
32.3403
32.3573
32.3738
32.3897
32.4051
32.4199
32.4342
32.4479
32.461
32.4736
32.4856
32.497
32.5079
32.5182
32.5279
32.5371
32.5457
32.5537
32.5612
32.5681
32.5744
32.5801
32.5853
32.5899
32.5939
32.5974
32.6002
32.6025
32.6043
32.6054
32.606
42.2752
42.2663
42.2481
42.2217
42.1873
42.1458
42.0975
42.043
41.9826
41.9165
41.8451
41.7685
41.6869
41.6005
41.5092
41.4134
41.3131
41.2084
41.0994
40.9863
40.8692
40.7481
40.6233
40.4949
40.3629
40.2275
40.0889
39.9472
39.8025
39.6549
39.5046
39.3517
39.1963
39.0386
38.8788
38.7168
38.553
38.3873
38.22
38.0511
37.8808
37.7093
37.5366
37.3628
37.1882
37.0127
36.8366
36.66
36.4829
36.3055
36.1279
35.9502
35.7725
35.5949
35.4176
35.2406
35.0641
34.888
34.7127
34.538
34.3642
34.1912
34.0193
33.8484
33.6788
33.5103
33.3432
33.1775
33.0133
32.8506
32.6895
32.5301
32.3724
32.2166
32.0626
31.9105
31.7604
31.6123
31.4663
31.3224
31.1807
31.0411
30.9039
30.7688
30.6361
30.5058
30.3778
30.2522
30.1291
30.0084
29.8902
29.7745
29.6613
29.5506
29.4425
29.3369
29.2339
29.1335
29.0356
28.9403
28.8476
28.7575
28.6699
28.585
28.5026
28.4228
28.3455
28.2708
28.1986
28.129
28.0618
27.9972
27.9351
27.8754
27.8182
27.7635
27.7111
27.6612
27.6136
27.5684
27.5255
27.4849
27.4466
27.4105
27.3767
27.3451
27.3157
27.2884
27.2632
27.2401
27.2191
27.2001
27.1831
27.1681
27.155
27.1438
27.1345
27.127
27.1213
27.1174
27.1153
27.1149
27.1161
27.119
27.1236
27.1297
27.1373
27.1465
27.1571
27.1692
27.1828
27.1977
27.2139
27.2315
27.2504
27.2705
27.2919
27.3144
27.3381
27.363
27.3889
27.4159
27.444
27.473
27.5031
27.534
27.5659
27.5987
27.6324
27.6668
27.7021
27.7382
27.775
27.8125
27.8507
27.8896
27.9291
27.9692
28.0099
28.0512
28.093
28.1353
28.1782
28.2214
28.2652
28.3093
28.3538
28.3987
28.444
28.4896
28.5355
28.5817
28.6281
28.6748
28.7217
28.7689
28.8162
28.8637
28.9113
28.9591
29.0069
29.0549
29.103
29.1511
29.1993
29.2475
29.2957
29.3439
29.3921
29.4402
29.4883
29.5364
29.5843
29.6322
29.68
29.7277
29.7752
29.8226
29.8699
29.9169
29.9638
30.0105
30.057
30.1033
30.1494
30.1953
30.2409
30.2862
30.3313
30.3761
30.4206
30.4649
30.5088
30.5524
30.5957
30.6387
30.6814
30.7237
30.7656
30.8073
30.8485
30.8894
30.9299
30.97
31.0097
31.049
31.0879
31.1264
31.1645
31.2022
31.2394
31.2762
31.3126
31.3485
31.384
31.4191
31.4536
31.4877
31.5214
31.5546
31.5873
31.6195
31.6512
31.6825
31.7133
31.7435
31.7733
31.8026
31.8314
31.8596
31.8874
31.9146
31.9413
31.9676
31.9932
32.0184
32.043
32.0671
32.0907
32.1138
32.1363
32.1582
32.1797
32.2006
32.2209
32.2407
32.26
32.2787
32.2968
32.3144
32.3315
32.348
32.3639
32.3793
32.3941
32.4083
32.422
32.4352
32.4477
32.4597
32.4712
32.4821
32.4924
32.5021
32.5113
32.5199
32.5279
32.5354
32.5422
32.5486
32.5543
32.5595
32.5641
32.5681
32.5715
32.5744
32.5767
32.5784
32.5796
32.5802
42.2236
42.2146
42.1964
42.1699
42.1354
42.0936
42.045
41.9901
41.9291
41.8626
41.7906
41.7135
41.6314
41.5444
41.4527
41.3564
41.2556
41.1505
41.0411
40.9277
40.8102
40.6888
40.5637
40.435
40.3028
40.1672
40.0283
39.8864
39.7415
39.5937
39.4432
39.2901
39.1346
38.9768
38.8167
38.6547
38.4907
38.3249
38.1575
37.9885
37.8182
37.6465
37.4737
37.2999
37.1252
36.9497
36.7736
36.5969
36.4197
36.2423
36.0647
35.887
35.7093
35.5317
35.3544
35.1775
35.0009
34.8249
34.6496
34.4749
34.3012
34.1283
33.9564
33.7856
33.616
33.4476
33.2806
33.1149
32.9508
32.7882
32.6272
32.4679
32.3103
32.1546
32.0007
31.8487
31.6988
31.5508
31.4049
31.2611
31.1195
30.9801
30.843
30.7081
30.5756
30.4454
30.3175
30.1921
30.0691
29.9486
29.8306
29.715
29.602
29.4915
29.3835
29.2781
29.1753
29.075
28.9773
28.8822
28.7897
28.6997
28.6124
28.5276
28.4454
28.3657
28.2886
28.2141
28.1421
28.0726
28.0057
27.9413
27.8793
27.8198
27.7628
27.7082
27.6561
27.6063
27.5589
27.5139
27.4712
27.4308
27.3927
27.3568
27.3231
27.2917
27.2624
27.2353
27.2103
27.1874
27.1666
27.1477
27.1309
27.116
27.1031
27.0921
27.0829
27.0756
27.0701
27.0664
27.0644
27.0641
27.0656
27.0686
27.0733
27.0795
27.0873
27.0966
27.1074
27.1197
27.1333
27.1484
27.1648
27.1825
27.2015
27.2217
27.2432
27.2659
27.2897
27.3147
27.3407
27.3679
27.396
27.4252
27.4553
27.4864
27.5184
27.5513
27.585
27.6196
27.655
27.6911
27.728
27.7656
27.8039
27.8429
27.8825
27.9227
27.9635
28.0049
28.0467
28.0891
28.132
28.1754
28.2192
28.2634
28.308
28.3529
28.3983
28.4439
28.4899
28.5361
28.5826
28.6293
28.6763
28.7235
28.7709
28.8184
28.8661
28.9139
28.9618
29.0098
29.0579
29.1061
29.1543
29.2025
29.2508
29.299
29.3472
29.3954
29.4435
29.4916
29.5396
29.5875
29.6353
29.683
29.7306
29.778
29.8253
29.8723
29.9193
29.966
30.0125
30.0588
30.1049
30.1508
30.1964
30.2417
30.2868
30.3317
30.3762
30.4204
30.4644
30.508
30.5513
30.5943
30.637
30.6793
30.7213
30.7629
30.8041
30.845
30.8855
30.9256
30.9653
31.0046
31.0435
31.082
31.1201
31.1578
31.195
31.2318
31.2682
31.3041
31.3396
31.3747
31.4092
31.4433
31.477
31.5102
31.5429
31.5751
31.6068
31.6381
31.6688
31.6991
31.7289
31.7581
31.7869
31.8152
31.8429
31.8701
31.8969
31.9231
31.9487
31.9739
31.9985
32.0226
32.0462
32.0692
32.0917
32.1137
32.1351
32.156
32.1763
32.1961
32.2154
32.2341
32.2522
32.2698
32.2869
32.3034
32.3193
32.3347
32.3495
32.3637
32.3774
32.3905
32.4031
32.4151
32.4265
32.4374
32.4477
32.4574
32.4666
32.4752
32.4832
32.4907
32.4976
32.5039
32.5096
32.5148
32.5194
32.5234
32.5269
32.5297
32.532
32.5338
32.5349
32.5355
42.1867
42.1778
42.1599
42.1337
42.0995
42.058
42.0096
41.9548
41.8938
41.8272
41.755
41.6776
41.5951
41.5078
41.4157
41.319
41.2178
41.1123
41.0025
40.8886
40.7708
40.649
40.5235
40.3944
40.2619
40.1259
39.9867
39.8444
39.6992
39.5511
39.4003
39.2469
39.0911
38.933
38.7727
38.6104
38.4461
38.2801
38.1125
37.9433
37.7727
37.6008
37.4278
37.2538
37.0789
36.9032
36.7269
36.55
36.3728
36.1952
36.0174
35.8396
35.6617
35.4841
35.3066
35.1295
34.9529
34.7768
34.6014
34.4267
34.2528
34.0798
33.9079
33.7371
33.5674
33.399
33.2319
33.0663
32.9021
32.7395
32.5785
32.4192
32.2616
32.1059
31.952
31.8001
31.6501
31.5022
31.3563
31.2126
31.0711
30.9317
30.7946
30.6598
30.5273
30.3972
30.2695
30.1441
30.0212
29.9008
29.7829
29.6674
29.5545
29.4441
29.3363
29.231
29.1283
29.0281
28.9305
28.8356
28.7432
28.6534
28.5661
28.4815
28.3994
28.3199
28.243
28.1686
28.0968
28.0275
27.9607
27.8964
27.8347
27.7753
27.7185
27.6641
27.6121
27.5625
27.5153
27.4704
27.4279
27.3876
27.3497
27.314
27.2805
27.2493
27.2202
27.1933
27.1684
27.1457
27.125
27.1064
27.0897
27.075
27.0623
27.0514
27.0425
27.0353
27.03
27.0264
27.0246
27.0245
27.0261
27.0293
27.0342
27.0406
27.0486
27.058
27.069
27.0814
27.0952
27.1104
27.127
27.1449
27.164
27.1844
27.2061
27.2289
27.2529
27.278
27.3042
27.3314
27.3597
27.389
27.4193
27.4506
27.4827
27.5157
27.5496
27.5843
27.6198
27.6561
27.6931
27.7308
27.7692
27.8083
27.848
27.8884
27.9293
27.9707
28.0127
28.0553
28.0983
28.1417
28.1856
28.2299
28.2746
28.3197
28.3651
28.4108
28.4569
28.5032
28.5498
28.5966
28.6437
28.691
28.7384
28.786
28.8338
28.8817
28.9297
28.9778
29.0259
29.0742
29.1225
29.1708
29.2191
29.2674
29.3157
29.3639
29.4121
29.4602
29.5083
29.5563
29.6041
29.6519
29.6995
29.747
29.7943
29.8414
29.8884
29.9352
29.9817
30.0281
30.0742
30.1201
30.1658
30.2112
30.2563
30.3012
30.3457
30.39
30.434
30.4777
30.521
30.564
30.6067
30.6491
30.6911
30.7327
30.774
30.8149
30.8554
30.8955
30.9353
30.9746
31.0136
31.0521
31.0902
31.1279
31.1652
31.202
31.2384
31.2743
31.3098
31.3449
31.3795
31.4136
31.4473
31.4805
31.5132
31.5454
31.5772
31.6084
31.6392
31.6695
31.6993
31.7285
31.7573
31.7856
31.8133
31.8406
31.8673
31.8935
31.9192
31.9444
31.969
31.9931
32.0167
32.0398
32.0623
32.0842
32.1057
32.1266
32.1469
32.1667
32.186
32.2047
32.2228
32.2404
32.2575
32.274
32.2899
32.3053
32.3201
32.3343
32.348
32.3612
32.3737
32.3857
32.3972
32.408
32.4184
32.4281
32.4373
32.4459
32.4539
32.4613
32.4682
32.4745
32.4803
32.4854
32.49
32.4941
32.4975
32.5004
32.5027
32.5044
32.5056
32.5061
42.1365
42.1276
42.1098
42.0837
42.0495
42.008
41.9594
41.9043
41.843
41.776
41.7034
41.6255
41.5425
41.4547
41.3621
41.2649
41.1632
41.0572
40.9469
40.8326
40.7143
40.5921
40.4662
40.3367
40.2038
40.0675
39.9279
39.7853
39.6397
39.4913
39.3402
39.1866
39.0305
38.8721
38.7116
38.549
38.3846
38.2183
38.0504
37.881
37.7102
37.5382
37.365
37.1909
37.0158
36.84
36.6635
36.4865
36.3091
36.1314
35.9535
35.7756
35.5977
35.4199
35.2424
35.0652
34.8886
34.7124
34.5369
34.3622
34.1883
34.0153
33.8434
33.6725
33.5029
33.3345
33.1674
33.0018
32.8376
32.675
32.5141
32.3548
32.1973
32.0417
31.8879
31.736
31.5861
31.4383
31.2925
31.1489
31.0074
30.8682
30.7312
30.5965
30.4642
30.3342
30.2066
30.0814
29.9586
29.8383
29.7205
29.6052
29.4925
29.3822
29.2746
29.1695
29.0669
28.9669
28.8696
28.7748
28.6825
28.5929
28.5059
28.4214
28.3396
28.2603
28.1835
28.1093
28.0377
27.9686
27.902
27.838
27.7764
27.7173
27.6607
27.6065
27.5547
27.5053
27.4583
27.4136
27.3713
27.3313
27.2936
27.2581
27.2248
27.1938
27.1649
27.1382
27.1136
27.091
27.0706
27.0521
27.0357
27.0212
27.0087
26.998
26.9892
26.9823
26.9772
26.9738
26.9722
26.9723
26.9741
26.9775
26.9826
26.9892
26.9973
27.007
27.0181
27.0307
27.0447
27.0601
27.0768
27.0949
27.1142
27.1348
27.1566
27.1796
27.2037
27.229
27.2554
27.2828
27.3113
27.3407
27.3711
27.4025
27.4348
27.468
27.502
27.5368
27.5725
27.6089
27.6461
27.6839
27.7225
27.7617
27.8015
27.842
27.883
27.9246
27.9667
28.0093
28.0524
28.096
28.14
28.1844
28.2292
28.2744
28.3199
28.3657
28.4119
28.4583
28.505
28.5519
28.5991
28.6464
28.6939
28.7416
28.7895
28.8375
28.8855
28.9337
28.9819
29.0302
29.0786
29.127
29.1753
29.2237
29.272
29.3204
29.3686
29.4168
29.4649
29.5129
29.5609
29.6087
29.6563
29.7038
29.7512
29.7984
29.8454
29.8922
29.9388
29.9852
30.0314
30.0773
30.123
30.1685
30.2136
30.2585
30.3031
30.3474
30.3915
30.4352
30.4785
30.5216
30.5643
30.6067
30.6487
30.6904
30.7316
30.7726
30.8131
30.8533
30.893
30.9324
30.9714
31.0099
31.048
31.0857
31.123
31.1599
31.1963
31.2322
31.2677
31.3028
31.3374
31.3715
31.4052
31.4384
31.4711
31.5034
31.5351
31.5664
31.5972
31.6275
31.6573
31.6865
31.7153
31.7436
31.7714
31.7986
31.8254
31.8516
31.8773
31.9024
31.9271
31.9512
31.9748
31.9978
32.0203
32.0423
32.0637
32.0846
32.105
32.1248
32.144
32.1627
32.1809
32.1985
32.2155
32.232
32.248
32.2633
32.2782
32.2924
32.3061
32.3193
32.3318
32.3438
32.3553
32.3661
32.3764
32.3862
32.3953
32.4039
32.412
32.4194
32.4263
32.4326
32.4384
32.4435
32.4481
32.4522
32.4556
32.4585
32.4608
32.4625
32.4637
32.4642
42.0965
42.0878
42.0702
42.0443
42.0104
41.969
41.9205
41.8655
41.8042
41.737
41.6641
41.5859
41.5026
41.4143
41.3213
41.2236
41.1215
41.015
40.9042
40.7894
40.6706
40.548
40.4216
40.2917
40.1582
40.0215
39.8815
39.7385
39.5925
39.4437
39.2922
39.1382
38.9817
38.823
38.6621
38.4991
38.3343
38.1678
37.9996
37.8299
37.6588
37.4865
37.313
37.1386
36.9632
36.7872
36.6104
36.4332
36.2556
36.0777
35.8996
35.7214
35.5434
35.3654
35.1877
35.0104
34.8336
34.6573
34.4817
34.3068
34.1328
33.9597
33.7877
33.6168
33.447
33.2785
33.1114
32.9457
32.7815
32.6189
32.4579
32.2987
32.1411
31.9855
31.8317
31.6798
31.5299
31.3821
31.2364
31.0928
30.9514
30.8122
30.6753
30.5407
30.4084
30.2785
30.1509
30.0258
29.9032
29.783
29.6653
29.5501
29.4375
29.3274
29.2198
29.1149
29.0125
28.9126
28.8154
28.7207
28.6287
28.5392
28.4524
28.3681
28.2864
28.2073
28.1307
28.0567
27.9853
27.9164
27.85
27.7861
27.7247
27.6658
27.6094
27.5554
27.5038
27.4546
27.4078
27.3634
27.3213
27.2815
27.244
27.2087
27.1757
27.1449
27.1162
27.0897
27.0653
27.043
27.0227
27.0045
26.9883
26.974
26.9617
26.9513
26.9427
26.936
26.9311
26.928
26.9266
26.9269
26.9289
26.9325
26.9378
26.9446
26.953
26.9628
26.9742
26.987
27.0012
27.0168
27.0337
27.052
27.0715
27.0923
27.1143
27.1375
27.1618
27.1873
27.2138
27.2414
27.2701
27.2997
27.3303
27.3619
27.3943
27.4277
27.4619
27.4969
27.5327
27.5693
27.6066
27.6446
27.6833
27.7227
27.7627
27.8033
27.8445
27.8862
27.9285
27.9713
28.0145
28.0582
28.1023
28.1469
28.1918
28.2371
28.2828
28.3287
28.375
28.4216
28.4684
28.5154
28.5627
28.6101
28.6578
28.7056
28.7535
28.8016
28.8498
28.8981
28.9464
28.9948
29.0433
29.0917
29.1402
29.1886
29.2371
29.2855
29.3338
29.3821
29.4303
29.4784
29.5264
29.5743
29.622
29.6696
29.717
29.7643
29.8114
29.8583
29.9049
29.9514
29.9976
30.0436
30.0894
30.1349
30.1801
30.2251
30.2697
30.3141
30.3581
30.4019
30.4453
30.4884
30.5312
30.5736
30.6157
30.6574
30.6987
30.7397
30.7803
30.8205
30.8603
30.8997
30.9387
30.9772
31.0154
31.0531
31.0905
31.1273
31.1638
31.1998
31.2353
31.2704
31.305
31.3392
31.3729
31.4061
31.4388
31.4711
31.5029
31.5342
31.565
31.5953
31.6251
31.6544
31.6832
31.7115
31.7393
31.7666
31.7933
31.8196
31.8453
31.8705
31.8951
31.9192
31.9428
31.9659
31.9884
32.0104
32.0319
32.0528
32.0731
32.0929
32.1122
32.1309
32.1491
32.1667
32.1837
32.2002
32.2162
32.2316
32.2464
32.2607
32.2744
32.2875
32.3001
32.3121
32.3235
32.3344
32.3447
32.3545
32.3636
32.3722
32.3803
32.3877
32.3946
32.4009
32.4067
32.4118
32.4164
32.4205
32.4239
32.4268
32.4291
32.4308
32.432
32.4325
42.0475
42.0388
42.0212
41.9955
41.9616
41.9202
41.8717
41.8164
41.7548
41.6873
41.614
41.5354
41.4515
41.3628
41.2692
41.1709
41.0682
40.9612
40.8499
40.7346
40.6152
40.4921
40.3652
40.2348
40.1009
39.9637
39.8233
39.6798
39.5334
39.3841
39.2322
39.0778
38.921
38.7619
38.6006
38.4373
38.2722
38.1053
37.9368
37.7668
37.5954
37.4228
37.2491
37.0744
36.8988
36.7225
36.5455
36.3681
36.1902
36.0121
35.8339
35.6555
35.4773
35.2992
35.1214
34.9439
34.7669
34.5905
34.4148
34.2398
34.0657
33.8926
33.7205
33.5495
33.3797
33.2111
33.044
32.8783
32.7141
32.5514
32.3904
32.2312
32.0737
31.918
31.7643
31.6124
31.4626
31.3149
31.1692
31.0257
30.8843
30.7452
30.6084
30.4739
30.3417
30.2119
30.0845
29.9595
29.837
29.717
29.5994
29.4844
29.3719
29.2619
29.1546
29.0498
28.9475
28.8479
28.7508
28.6564
28.5645
28.4753
28.3886
28.3045
28.223
28.1441
28.0678
27.994
27.9228
27.8541
27.7879
27.7243
27.6631
27.6045
27.5483
27.4945
27.4432
27.3942
27.3477
27.3035
27.2616
27.2221
27.1848
27.1498
27.117
27.0864
27.058
27.0318
27.0076
26.9856
26.9656
26.9476
26.9316
26.9176
26.9055
26.8953
26.887
26.8806
26.8759
26.873
26.8719
26.8724
26.8747
26.8785
26.884
26.8911
26.8997
26.9098
26.9214
26.9344
26.9488
26.9646
26.9818
27.0003
27.02
27.041
27.0632
27.0866
27.1112
27.1368
27.1636
27.1914
27.2203
27.2501
27.2809
27.3126
27.3453