/*--------------------------------*- C++ -*----------------------------------*\
| =========                 |                                                 |
| \\      /  F ield         | OpenFOAM: The Open Source CFD Toolbox           |
|  \\    /   O peration     | Version:  2212                                  |
|   \\  /    A nd           | Website:  www.openfoam.com                      |
|    \\/     M anipulation  |                                                 |
\*---------------------------------------------------------------------------*/
FoamFile
{
    version     2.0;
    format      ascii;
    arch        "LSB;label=32;scalar=64";
    class       volScalarField;
    location    "570";
    object      p_rgh_0;
}
// * * * * * * * * * * * * * * * * * * * * * * * * * * * * * * * * * * * * * //

dimensions      [1 -1 -2 0 0 0 0];

internalField   nonuniform List<scalar> 
204800
(
42.5272
42.52
42.5058
42.4845
42.4559
42.4203
42.3776
42.328
42.2719
42.2096
42.1413
42.0674
41.988
41.9034
41.8137
41.7193
41.6201
41.5164
41.4084
41.296
41.1795
41.059
40.9347
40.8067
40.675
40.5399
40.4015
40.2599
40.1153
39.9678
39.8175
39.6645
39.5091
39.3513
39.1913
39.0291
38.8651
38.6991
38.5315
38.3623
38.1917
38.0198
37.8466
37.6724
37.4973
37.3214
37.1448
36.9676
36.7899
36.6119
36.4337
36.2554
36.0771
35.8988
35.7208
35.5431
35.3659
35.1891
35.013
34.8375
34.6629
34.4892
34.3164
34.1447
33.9742
33.8049
33.6369
33.4704
33.3052
33.1416
32.9797
32.8193
32.6608
32.504
32.349
32.196
32.045
31.8959
31.7489
31.6041
31.4614
31.3209
31.1826
31.0466
30.9129
30.7816
30.6526
30.5261
30.402
30.2803
30.1611
30.0444
29.9302
29.8186
29.7095
29.6029
29.4989
29.3975
29.2987
29.2024
29.1087
29.0176
28.9291
28.8432
28.7599
28.6791
28.6009
28.5253
28.4522
28.3816
28.3136
28.2481
28.185
28.1245
28.0664
28.0108
27.9576
27.9068
27.8583
27.8123
27.7686
27.7272
27.688
27.6512
27.6166
27.5842
27.5539
27.5259
27.4999
27.4761
27.4543
27.4346
27.4169
27.4012
27.3874
27.3755
27.3655
27.3573
27.351
27.3465
27.3437
27.3427
27.3433
27.3456
27.3495
27.355
27.3621
27.3707
27.3808
27.3924
27.4054
27.4197
27.4355
27.4526
27.4709
27.4906
27.5115
27.5335
27.5568
27.5812
27.6067
27.6333
27.6609
27.6895
27.7192
27.7498
27.7813
27.8137
27.847
27.8811
27.916
27.9517
27.9882
28.0254
28.0633
28.1019
28.1411
28.1809
28.2214
28.2624
28.3039
28.346
28.3885
28.4316
28.475
28.519
28.5633
28.608
28.653
28.6984
28.7441
28.7901
28.8363
28.8829
28.9296
28.9766
29.0237
29.0711
29.1185
29.1662
29.2139
29.2618
29.3097
29.3577
29.4057
29.4538
29.5019
29.55
29.5981
29.6462
29.6942
29.7421
29.79
29.8378
29.8855
29.9331
29.9806
30.0279
30.0751
30.1221
30.1689
30.2156
30.262
30.3083
30.3543
30.4001
30.4457
30.491
30.536
30.5808
30.6253
30.6695
30.7134
30.757
30.8003
30.8433
30.8859
30.9282
30.9702
31.0117
31.053
31.0938
31.1343
31.1744
31.2141
31.2534
31.2923
31.3309
31.3689
31.4066
31.4439
31.4807
31.517
31.553
31.5885
31.6235
31.6581
31.6922
31.7259
31.759
31.7918
31.824
31.8557
31.887
31.9178
31.9481
31.9778
32.0071
32.0359
32.0642
32.092
32.1192
32.146
32.1722
32.1979
32.2231
32.2477
32.2718
32.2954
32.3185
32.341
32.363
32.3844
32.4053
32.4257
32.4455
32.4648
32.4835
32.5016
32.5193
32.5363
32.5528
32.5688
32.5841
32.599
32.6132
32.6269
32.6401
32.6527
32.6647
32.6761
32.687
32.6973
32.7071
32.7162
32.7249
32.7329
32.7404
32.7472
32.7536
32.7593
32.7645
32.7691
32.7731
32.7766
32.7794
32.7817
32.7835
32.7846
32.7852
42.4751
42.4662
42.4489
42.4235
42.3907
42.351
42.3048
42.2524
42.1941
42.1302
42.0608
41.9862
41.9063
41.8214
41.7317
41.6371
41.538
41.4344
41.3264
41.2141
41.0978
40.9774
40.8533
40.7254
40.594
40.4591
40.3209
40.1795
40.0351
39.8878
39.7377
39.585
39.4299
39.2723
39.1125
38.9507
38.7869
38.6212
38.4539
38.285
38.1147
37.943
37.7702
37.5963
37.4215
37.2459
37.0695
36.8926
36.7153
36.5376
36.3597
36.1817
36.0037
35.8258
35.6481
35.4707
35.2938
35.1173
34.9415
34.7664
34.5921
34.4187
34.2462
34.0749
33.9047
33.7357
33.568
33.4017
33.2369
33.0736
32.9119
32.7519
32.5936
32.4372
32.2825
32.1298
31.979
31.8303
31.6836
31.539
31.3965
31.2563
31.1183
30.9826
30.8491
30.7181
30.5893
30.463
30.3392
30.2177
30.0988
29.9823
29.8684
29.7569
29.648
29.5417
29.4379
29.3367
29.2381
29.142
29.0485
28.9576
28.8693
28.7836
28.7004
28.6198
28.5418
28.4663
28.3934
28.323
28.2551
28.1897
28.1268
28.0664
28.0084
27.9529
27.8998
27.8491
27.8008
27.7549
27.7113
27.67
27.6309
27.5942
27.5597
27.5273
27.4972
27.4692
27.4433
27.4196
27.3979
27.3782
27.3605
27.3448
27.3311
27.3193
27.3093
27.3012
27.2949
27.2904
27.2877
27.2867
27.2873
27.2896
27.2936
27.2991
27.3062
27.3148
27.3249
27.3364
27.3494
27.3638
27.3795
27.3966
27.415
27.4346
27.4555
27.4775
27.5007
27.5251
27.5506
27.5771
27.6047
27.6333
27.6629
27.6935
27.725
27.7573
27.7906
27.8246
27.8595
27.8952
27.9316
27.9687
28.0066
28.0451
28.0843
28.124
28.1644
28.2053
28.2468
28.2888
28.3313
28.3743
28.4177
28.4616
28.5058
28.5504
28.5954
28.6407
28.6863
28.7322
28.7784
28.8249
28.8716
28.9184
28.9655
29.0128
29.0602
29.1077
29.1554
29.2032
29.251
29.2989
29.3469
29.3949
29.4429
29.4909
29.5389
29.5869
29.6348
29.6827
29.7305
29.7783
29.8259
29.8734
29.9208
29.968
30.0151
30.062
30.1088
30.1554
30.2018
30.2479
30.2939
30.3396
30.3851
30.4303
30.4753
30.52
30.5644
30.6085
30.6524
30.6959
30.7391
30.782
30.8245
30.8668
30.9086
30.9501
30.9913
31.0321
31.0725
31.1125
31.1522
31.1914
31.2303
31.2687
31.3067
31.3443
31.3815
31.4182
31.4545
31.4904
31.5258
31.5608
31.5953
31.6294
31.663
31.6961
31.7288
31.7609
31.7926
31.8238
31.8546
31.8848
31.9145
31.9438
31.9725
32.0007
32.0284
32.0556
32.0823
32.1085
32.1342
32.1593
32.1839
32.208
32.2315
32.2545
32.277
32.299
32.3204
32.3412
32.3616
32.3813
32.4006
32.4192
32.4374
32.455
32.472
32.4885
32.5044
32.5197
32.5345
32.5488
32.5625
32.5756
32.5881
32.6001
32.6116
32.6224
32.6327
32.6424
32.6516
32.6602
32.6682
32.6757
32.6825
32.6888
32.6946
32.6997
32.7043
32.7084
32.7118
32.7147
32.717
32.7187
32.7198
32.7204
42.4599
42.4512
42.4339
42.4088
42.3761
42.3365
42.2903
42.2379
42.1796
42.1157
42.0462
41.9713
41.8913
41.8063
41.7164
41.6218
41.5225
41.4188
41.3106
41.1983
41.0818
40.9614
40.8372
40.7092
40.5777
40.4427
40.3044
40.163
40.0185
39.8711
39.721
39.5683
39.413
39.2554
39.0956
38.9337
38.7699
38.6042
38.4368
38.2679
38.0975
37.9258
37.753
37.5791
37.4042
37.2286
37.0522
36.8753
36.698
36.5203
36.3424
36.1643
35.9863
35.8084
35.6307
35.4533
35.2764
35.0999
34.9241
34.749
34.5747
34.4013
34.2289
34.0575
33.8873
33.7183
33.5507
33.3844
33.2196
33.0563
32.8947
32.7347
32.5764
32.42
32.2653
32.1126
31.9619
31.8132
31.6665
31.5219
31.3795
31.2393
31.1014
30.9657
30.8323
30.7012
30.5726
30.4463
30.3225
30.2011
30.0822
29.9657
29.8518
29.7404
29.6316
29.5253
29.4216
29.3204
29.2218
29.1258
29.0324
28.9415
28.8532
28.7675
28.6844
28.6039
28.5259
28.4505
28.3776
28.3072
28.2394
28.174
28.1112
28.0508
27.9929
27.9375
27.8844
27.8338
27.7855
27.7396
27.6961
27.6548
27.6158
27.5791
27.5446
27.5124
27.4823
27.4543
27.4285
27.4048
27.3831
27.3635
27.3459
27.3302
27.3165
27.3048
27.2949
27.2868
27.2805
27.2761
27.2734
27.2724
27.2731
27.2755
27.2794
27.285
27.2921
27.3008
27.3109
27.3225
27.3355
27.3499
27.3657
27.3828
27.4012
27.4209
27.4418
27.4639
27.4871
27.5115
27.537
27.5636
27.5912
27.6199
27.6495
27.6801
27.7116
27.744
27.7772
27.8113
27.8462
27.8819
27.9184
27.9555
27.9934
28.032
28.0711
28.1109
28.1513
28.1923
28.2338
28.2758
28.3183
28.3613
28.4047
28.4486
28.4929
28.5375
28.5825
28.6278
28.6735
28.7194
28.7656
28.8121
28.8587
28.9056
28.9527
29
29.0474
29.095
29.1427
29.1904
29.2383
29.2862
29.3342
29.3822
29.4302
29.4783
29.5263
29.5743
29.6222
29.6701
29.7179
29.7656
29.8133
29.8608
29.9082
29.9554
30.0025
30.0495
30.0962
30.1428
30.1892
30.2354
30.2813
30.327
30.3725
30.4177
30.4627
30.5074
30.5518
30.596
30.6398
30.6833
30.7265
30.7694
30.812
30.8542
30.8961
30.9376
30.9788
31.0195
31.0599
31.1
31.1396
31.1789
31.2177
31.2561
31.2942
31.3318
31.3689
31.4057
31.442
31.4779
31.5133
31.5483
31.5828
31.6168
31.6504
31.6835
31.7162
31.7484
31.7801
31.8113
31.842
31.8722
31.902
31.9312
31.9599
31.9881
32.0159
32.0431
32.0697
32.0959
32.1216
32.1467
32.1713
32.1954
32.2189
32.2419
32.2644
32.2864
32.3078
32.3286
32.3489
32.3687
32.3879
32.4066
32.4248
32.4423
32.4594
32.4758
32.4917
32.5071
32.5219
32.5361
32.5498
32.5629
32.5755
32.5875
32.5989
32.6098
32.6201
32.6298
32.639
32.6475
32.6556
32.663
32.6699
32.6762
32.6819
32.6871
32.6917
32.6957
32.6991
32.702
32.7043
32.706
32.7072
32.7078
42.4061
42.3968
42.3784
42.3517
42.3172
42.2758
42.2278
42.1739
42.1142
42.0491
41.9786
41.9031
41.8225
41.737
41.6467
41.5518
41.4523
41.3484
41.2402
41.1277
41.0112
40.8908
40.7665
40.6385
40.507
40.3721
40.2338
40.0925
39.9481
39.8008
39.6507
39.4981
39.3429
39.1855
39.0258
38.864
38.7002
38.5347
38.3675
38.1987
38.0284
37.8569
37.6842
37.5105
37.3358
37.1603
36.9842
36.8074
36.6303
36.4527
36.275
36.0972
35.9194
35.7417
35.5642
35.387
35.2102
35.034
34.8584
34.6835
34.5094
34.3362
34.164
33.9928
33.8228
33.6541
33.4867
33.3206
33.156
32.993
32.8315
32.6718
32.5137
32.3575
32.2031
32.0506
31.9001
31.7516
31.6051
31.4608
31.3186
31.1786
31.0408
30.9053
30.7722
30.6413
30.5129
30.3868
30.2632
30.142
30.0233
29.907
29.7933
29.6821
29.5735
29.4674
29.3638
29.2629
29.1645
29.0686
28.9754
28.8847
28.7966
28.7111
28.6281
28.5478
28.4699
28.3947
28.3219
28.2517
28.184
28.1189
28.0562
27.996
27.9382
27.8829
27.83
27.7795
27.7314
27.6856
27.6421
27.601
27.5622
27.5256
27.4912
27.459
27.4291
27.4012
27.3755
27.3519
27.3303
27.3108
27.2933
27.2777
27.2641
27.2524
27.2426
27.2346
27.2284
27.224
27.2214
27.2205
27.2213
27.2237
27.2277
27.2333
27.2405
27.2492
27.2594
27.2711
27.2841
27.2986
27.3144
27.3315
27.35
27.3697
27.3906
27.4127
27.436
27.4604
27.486
27.5126
27.5402
27.5689
27.5985
27.6291
27.6606
27.693
27.7263
27.7604
27.7953
27.831
27.8674
27.9046
27.9425
27.981
28.0202
28.06
28.1003
28.1413
28.1828
28.2248
28.2673
28.3103
28.3537
28.3975
28.4418
28.4864
28.5313
28.5766
28.6223
28.6682
28.7144
28.7608
28.8074
28.8543
28.9014
28.9486
28.996
29.0435
29.0912
29.1389
29.1867
29.2346
29.2826
29.3305
29.3785
29.4265
29.4745
29.5224
29.5703
29.6182
29.666
29.7136
29.7612
29.8087
29.856
29.9033
29.9503
29.9972
30.0439
30.0905
30.1368
30.1829
30.2288
30.2745
30.32
30.3651
30.4101
30.4547
30.4991
30.5432
30.587
30.6305
30.6736
30.7165
30.759
30.8012
30.843
30.8845
30.9256
30.9663
31.0067
31.0467
31.0863
31.1255
31.1643
31.2027
31.2407
31.2782
31.3153
31.3521
31.3883
31.4241
31.4595
31.4945
31.5289
31.563
31.5965
31.6296
31.6622
31.6944
31.726
31.7572
31.7879
31.8181
31.8478
31.877
31.9057
31.9338
31.9615
31.9887
32.0154
32.0415
32.0671
32.0922
32.1168
32.1408
32.1644
32.1873
32.2098
32.2317
32.2531
32.2739
32.2942
32.314
32.3332
32.3518
32.3699
32.3875
32.4045
32.4209
32.4368
32.4522
32.467
32.4812
32.4948
32.5079
32.5205
32.5325
32.5439
32.5547
32.565
32.5747
32.5839
32.5924
32.6005
32.6079
32.6148
32.6211
32.6268
32.6319
32.6365
32.6405
32.644
32.6469
32.6491
32.6509
32.652
32.6526
42.3804
42.3714
42.3533
42.3269
42.2928
42.2517
42.2039
42.1501
42.0904
42.0251
41.9546
41.8788
41.798
41.7122
41.6217
41.5266
41.4268
41.3227
41.2142
41.1015
40.9848
40.8642
40.7397
40.6115
40.4798
40.3447
40.2064
40.0648
39.9203
39.7728
39.6227
39.4699
39.3146
39.157
38.9972
38.8353
38.6715
38.5058
38.3385
38.1696
37.9993
37.8277
37.6549
37.4811
37.3063
37.1308
36.9546
36.7778
36.6006
36.423
36.2452
36.0674
35.8895
35.7117
35.5342
35.357
35.1802
35.004
34.8283
34.6534
34.4793
34.3061
34.1339
33.9628
33.7928
33.624
33.4566
33.2906
33.126
32.963
32.8016
32.6418
32.4838
32.3276
32.1732
32.0207
31.8703
31.7218
31.5754
31.4311
31.2889
31.149
31.0113
30.8759
30.7427
30.612
30.4836
30.3576
30.234
30.1129
29.9942
29.8781
29.7644
29.6533
29.5447
29.4387
29.3352
29.2343
29.136
29.0402
28.9471
28.8565
28.7685
28.683
28.6002
28.5199
28.4421
28.367
28.2943
28.2242
28.1566
28.0915
28.0289
27.9688
27.9111
27.8559
27.8031
27.7527
27.7047
27.659
27.6156
27.5746
27.5358
27.4993
27.4651
27.433
27.4031
27.3754
27.3497
27.3262
27.3047
27.2853
27.2679
27.2524
27.2389
27.2273
27.2175
27.2096
27.2035
27.1992
27.1967
27.1959
27.1967
27.1992
27.2033
27.209
27.2163
27.2251
27.2354
27.2471
27.2602
27.2748
27.2906
27.3079
27.3264
27.3461
27.3671
27.3893
27.4127
27.4372
27.4628
27.4894
27.5172
27.5459
27.5756
27.6062
27.6378
27.6703
27.7036
27.7378
27.7727
27.8085
27.845
27.8822
27.9201
27.9587
27.9979
28.0378
28.0782
28.1192
28.1607
28.2028
28.2454
28.2884
28.3318
28.3757
28.42
28.4646
28.5097
28.555
28.6007
28.6466
28.6928
28.7393
28.786
28.8329
28.88
28.9272
28.9747
29.0222
29.0699
29.1177
29.1655
29.2134
29.2614
29.3094
29.3574
29.4054
29.4534
29.5014
29.5493
29.5972
29.645
29.6927
29.7403
29.7878
29.8351
29.8824
29.9295
29.9764
30.0231
30.0697
30.116
30.1621
30.2081
30.2538
30.2992
30.3444
30.3893
30.434
30.4784
30.5225
30.5663
30.6098
30.653
30.6958
30.7383
30.7805
30.8224
30.8638
30.905
30.9457
30.9861
31.0261
31.0657
31.1049
31.1437
31.1821
31.2201
31.2576
31.2948
31.3315
31.3678
31.4036
31.439
31.4739
31.5084
31.5424
31.576
31.6091
31.6417
31.6738
31.7055
31.7367
31.7673
31.7975
31.8272
31.8564
31.8851
31.9133
31.941
31.9682
31.9948
32.021
32.0466
32.0717
32.0963
32.1203
32.1438
32.1668
32.1893
32.2112
32.2326
32.2534
32.2737
32.2934
32.3126
32.3313
32.3494
32.367
32.384
32.4004
32.4163
32.4316
32.4464
32.4606
32.4743
32.4874
32.4999
32.5119
32.5233
32.5342
32.5445
32.5542
32.5633
32.5719
32.5799
32.5873
32.5942
32.6005
32.6062
32.6114
32.616
32.62
32.6234
32.6263
32.6286
32.6303
32.6315
32.632
42.3273
42.3181
42.2996
42.2728
42.238
42.1962
42.1476
42.0929
42.0324
41.9664
41.8951
41.8187
41.7373
41.6511
41.5601
41.4645
41.3644
41.2599
41.1512
41.0383
40.9214
40.8005
40.6759
40.5476
40.4158
40.2805
40.1421
40.0004
39.8558
39.7083
39.5581
39.4053
39.25
39.0923
38.9325
38.7706
38.6067
38.4411
38.2738
38.1049
37.9346
37.763
37.5903
37.4165
37.2418
37.0663
36.8902
36.7135
36.5363
36.3588
36.1811
36.0033
35.8256
35.6479
35.4705
35.2934
35.1167
34.9406
34.765
34.5902
34.4163
34.2432
34.0711
33.9001
33.7302
33.5616
33.3943
33.2285
33.064
32.9012
32.7399
32.5803
32.4224
32.2664
32.1122
31.9599
31.8095
31.6612
31.515
31.3709
31.2289
31.0891
30.9516
30.8163
30.6834
30.5528
30.4245
30.2987
30.1753
30.0544
29.9359
29.8199
29.7065
29.5955
29.4871
29.3813
29.278
29.1773
29.0791
28.9835
28.8905
28.8001
28.7123
28.627
28.5443
28.4642
28.3866
28.3116
28.2392
28.1692
28.1018
28.0369
27.9744
27.9145
27.857
27.8019
27.7493
27.699
27.6511
27.6056
27.5624
27.5215
27.4829
27.4466
27.4124
27.3805
27.3508
27.3232
27.2977
27.2743
27.2529
27.2336
27.2163
27.201
27.1876
27.1761
27.1665
27.1587
27.1528
27.1486
27.1461
27.1454
27.1464
27.149
27.1532
27.159
27.1664
27.1753
27.1856
27.1974
27.2107
27.2253
27.2413
27.2586
27.2772
27.297
27.3181
27.3404
27.3638
27.3884
27.414
27.4408
27.4686
27.4973
27.5271
27.5578
27.5895
27.622
27.6554
27.6896
27.7246
27.7604
27.797
27.8342
27.8722
27.9108
27.9501
27.99
28.0304
28.0715
28.113
28.1551
28.1977
28.2407
28.2842
28.3281
28.3724
28.4171
28.4621
28.5075
28.5532
28.5991
28.6454
28.6919
28.7386
28.7855
28.8326
28.8799
28.9273
28.9749
29.0225
29.0703
29.1182
29.1661
29.214
29.262
29.3101
29.3581
29.4061
29.454
29.502
29.5498
29.5976
29.6453
29.6929
29.7404
29.7878
29.835
29.882
29.9289
29.9757
30.0222
30.0685
30.1147
30.1606
30.2063
30.2517
30.2969
30.3418
30.3865
30.4308
30.4749
30.5187
30.5622
30.6053
30.6482
30.6907
30.7328
30.7747
30.8161
30.8572
30.898
30.9383
30.9783
31.0179
31.057
31.0958
31.1342
31.1722
31.2097
31.2468
31.2835
31.3198
31.3556
31.391
31.4259
31.4603
31.4943
31.5279
31.5609
31.5935
31.6257
31.6573
31.6884
31.7191
31.7493
31.779
31.8081
31.8368
31.865
31.8927
31.9198
31.9465
31.9726
31.9982
32.0233
32.0478
32.0718
32.0954
32.1183
32.1408
32.1627
32.184
32.2048
32.2251
32.2449
32.264
32.2827
32.3008
32.3183
32.3353
32.3518
32.3676
32.383
32.3977
32.4119
32.4256
32.4387
32.4512
32.4632
32.4746
32.4854
32.4957
32.5054
32.5145
32.5231
32.5311
32.5386
32.5454
32.5517
32.5574
32.5626
32.5672
32.5712
32.5746
32.5775
32.5798
32.5815
32.5826
32.5832
42.2949
42.2859
42.2677
42.2412
42.2068
42.1653
42.117
42.0624
42.0019
41.9358
41.8643
41.7877
41.706
41.6195
41.5282
41.4322
41.3318
41.227
41.1179
41.0047
40.8875
40.7663
40.6414
40.5128
40.3807
40.2452
40.1065
39.9646
39.8198
39.6721
39.5216
39.3686
39.2131
39.0552
38.8952
38.7331
38.5691
38.4033
38.2358
38.0668
37.8963
37.7246
37.5517
37.3778
37.203
37.0274
36.8511
36.6743
36.497
36.3194
36.1417
35.9638
35.7859
35.6082
35.4307
35.2535
35.0768
34.9006
34.725
34.5502
34.3762
34.203
34.0309
33.8599
33.69
33.5214
33.3541
33.1882
33.0238
32.8609
32.6997
32.5401
32.3822
32.2262
32.072
31.9198
31.7695
31.6212
31.475
31.3309
31.189
31.0493
30.9118
30.7766
30.6437
30.5132
30.3851
30.2593
30.136
30.0151
29.8967
29.7809
29.6675
29.5566
29.4483
29.3426
29.2394
29.1388
29.0407
28.9453
28.8524
28.7621
28.6743
28.5892
28.5066
28.4266
28.3492
28.2743
28.202
28.1321
28.0648
28
27.9377
27.8779
27.8205
27.7656
27.7131
27.663
27.6152
27.5698
27.5268
27.486
27.4475
27.4113
27.3773
27.3455
27.3159
27.2885
27.2631
27.2399
27.2187
27.1995
27.1823
27.1671
27.1538
27.1425
27.133
27.1254
27.1195
27.1155
27.1132
27.1126
27.1137
27.1164
27.1208
27.1267
27.1342
27.1432
27.1537
27.1656
27.179
27.1937
27.2098
27.2272
27.2459
27.2659
27.2871
27.3094
27.333
27.3577
27.3834
27.4103
27.4382
27.467
27.4969
27.5277
27.5595
27.5921
27.6256
27.6599
27.695
27.7309
27.7675
27.8049
27.8429
27.8816
27.921
27.9609
28.0015
28.0426
28.0843
28.1264
28.1691
28.2122
28.2558
28.2997
28.3441
28.3889
28.434
28.4794
28.5251
28.5712
28.6174
28.664
28.7108
28.7577
28.8049
28.8522
28.8997
28.9473
28.9951
29.0429
29.0908
29.1388
29.1868
29.2348
29.2829
29.3309
29.379
29.427
29.4749
29.5228
29.5707
29.6184
29.6661
29.7136
29.761
29.8082
29.8553
29.9023
29.949
29.9956
30.042
30.0881
30.134
30.1798
30.2252
30.2704
30.3154
30.3601
30.4044
30.4486
30.4924
30.5359
30.579
30.6219
30.6644
30.7066
30.7484
30.7899
30.831
30.8718
30.9122
30.9521
30.9917
31.0309
31.0697
31.1081
31.1461
31.1837
31.2208
31.2575
31.2938
31.3296
31.365
31.3999
31.4343
31.4684
31.5019
31.535
31.5676
31.5997
31.6314
31.6625
31.6932
31.7234
31.7531
31.7822
31.8109
31.8391
31.8668
31.8939
31.9206
31.9467
31.9723
31.9974
32.022
32.046
32.0695
32.0925
32.1149
32.1368
32.1582
32.179
32.1993
32.219
32.2382
32.2569
32.2749
32.2925
32.3095
32.3259
32.3418
32.3571
32.3719
32.3861
32.3998
32.4129
32.4254
32.4374
32.4488
32.4596
32.4699
32.4796
32.4887
32.4973
32.5053
32.5127
32.5196
32.5259
32.5316
32.5368
32.5414
32.5454
32.5488
32.5517
32.554
32.5557
32.5568
32.5574
42.2432
42.2342
42.216
42.1895
42.1549
42.1131
42.0644
42.0095
41.9485
41.8819
41.8098
41.7326
41.6504
41.5633
41.4715
41.3752
41.2743
41.1691
41.0596
40.946
40.8285
40.707
40.5818
40.4529
40.3206
40.1848
40.0459
39.9038
39.7587
39.6108
39.4602
39.307
39.1513
38.9933
38.8332
38.6709
38.5068
38.3409
38.1733
38.0042
37.8336
37.6618
37.4889
37.3149
37.14
36.9643
36.788
36.6112
36.4339
36.2563
36.0785
35.9006
35.7227
35.545
35.3675
35.1903
35.0136
34.8374
34.6619
34.4871
34.3131
34.1401
33.968
33.797
33.6272
33.4587
33.2915
33.1256
32.9613
32.7985
32.6374
32.4779
32.3201
32.1642
32.0101
31.858
31.7078
31.5597
31.4136
31.2696
31.1279
30.9883
30.8509
30.7159
30.5831
30.4528
30.3248
30.1992
30.076
29.9553
29.8371
29.7213
29.6081
29.4975
29.3893
29.2837
29.1807
29.0803
28.9824
28.8871
28.7944
28.7043
28.6168
28.5318
28.4494
28.3696
28.2923
28.2176
28.1455
28.0758
28.0087
27.9441
27.882
27.8223
27.7651
27.7104
27.6581
27.6081
27.5606
27.5154
27.4725
27.4319
27.3936
27.3576
27.3238
27.2921
27.2627
27.2354
27.2102
27.1872
27.1661
27.1471
27.1301
27.1151
27.102
27.0908
27.0815
27.074
27.0683
27.0644
27.0623
27.0618
27.0631
27.066
27.0705
27.0766
27.0842
27.0933
27.104
27.116
27.1295
27.1444
27.1606
27.1782
27.197
27.2171
27.2384
27.2609
27.2846
27.3094
27.3353
27.3622
27.3902
27.4192
27.4492
27.4801
27.5119
27.5447
27.5783
27.6127
27.6479
27.6839
27.7206
27.758
27.7962
27.835
27.8744
27.9144
27.9551
27.9963
28.038
28.0802
28.123
28.1661
28.2098
28.2538
28.2983
28.3431
28.3882
28.4337
28.4795
28.5256
28.572
28.6185
28.6654
28.7124
28.7596
28.807
28.8545
28.9022
28.9499
28.9978
29.0458
29.0938
29.1418
29.1899
29.238
29.2861
29.3341
29.3822
29.4302
29.4781
29.526
29.5737
29.6214
29.6689
29.7163
29.7636
29.8107
29.8577
29.9045
29.9511
29.9974
30.0436
30.0896
30.1353
30.1808
30.226
30.2709
30.3156
30.36
30.4041
30.448
30.4915
30.5346
30.5775
30.62
30.6622
30.7041
30.7456
30.7867
30.8274
30.8678
30.9078
30.9474
30.9866
31.0254
31.0638
31.1017
31.1393
31.1764
31.2131
31.2494
31.2852
31.3206
31.3555
31.39
31.424
31.4575
31.4906
31.5232
31.5553
31.587
31.6181
31.6488
31.679
31.7086
31.7378
31.7665
31.7947
31.8223
31.8495
31.8761
31.9022
31.9278
31.9529
31.9775
32.0015
32.025
32.048
32.0704
32.0923
32.1137
32.1345
32.1547
32.1745
32.1937
32.2123
32.2304
32.2479
32.2649
32.2814
32.2972
32.3126
32.3273
32.3415
32.3552
32.3683
32.3808
32.3928
32.4042
32.415
32.4253
32.435
32.4441
32.4527
32.4607
32.4681
32.475
32.4813
32.487
32.4921
32.4967
32.5007
32.5042
32.507
32.5093
32.511
32.5122
32.5128
42.2062
42.1974
42.1794
42.1532
42.119
42.0775
42.029
41.9741
41.9131
41.8464
41.7742
41.6967
41.6142
41.5267
41.4346
41.3378
41.2365
41.1309
41.021
40.907
40.789
40.6672
40.5416
40.4123
40.2796
40.1436
40.0042
39.8618
39.7164
39.5682
39.4173
39.2637
39.1078
38.9495
38.7891
38.6266
38.4622
38.296
38.1282
37.9589
37.7881
37.6161
37.4429
37.2688
37.0937
36.9178
36.7413
36.5643
36.3868
36.2091
36.0311
35.8531
35.6751
35.4973
35.3197
35.1424
34.9656
34.7893
34.6137
34.4388
34.2648
34.0916
33.9195
33.7485
33.5786
33.41
33.2428
33.0769
32.9126
32.7498
32.5886
32.4291
32.2714
32.1155
31.9614
31.8093
31.6591
31.511
31.365
31.2211
31.0794
30.9398
30.8026
30.6676
30.5349
30.4046
30.2767
30.1512
30.0281
29.9075
29.7894
29.6737
29.5606
29.4501
29.342
29.2366
29.1337
29.0334
28.9356
28.8405
28.7479
28.6579
28.5705
28.4857
28.4035
28.3238
28.2467
28.1721
28.1001
28.0307
27.9637
27.8993
27.8373
27.7778
27.7208
27.6662
27.6141
27.5643
27.5169
27.4719
27.4292
27.3888
27.3506
27.3148
27.2811
27.2497
27.2205
27.1933
27.1683
27.1454
27.1246
27.1058
27.0889
27.0741
27.0612
27.0501
27.041
27.0337
27.0282
27.0245
27.0225
27.0222
27.0236
27.0267
27.0314
27.0376
27.0454
27.0547
27.0655
27.0778
27.0914
27.1064
27.1228
27.1405
27.1595
27.1798
27.2012
27.2239
27.2477
27.2727
27.2987
27.3258
27.3539
27.3831
27.4132
27.4443
27.4762
27.5091
27.5428
27.5773
27.6127
27.6488
27.6856
27.7232
27.7615
27.8004
27.8399
27.8801
27.9209
27.9622
28.004
28.0464
28.0892
28.1325
28.1762
28.2204
28.2649
28.3098
28.3551
28.4007
28.4466
28.4927
28.5392
28.5858
28.6328
28.6799
28.7272
28.7746
28.8222
28.87
28.9178
28.9658
29.0138
29.0619
29.11
29.1581
29.2063
29.2545
29.3026
29.3507
29.3988
29.4467
29.4947
29.5425
29.5902
29.6378
29.6853
29.7326
29.7798
29.8268
29.8736
29.9202
29.9667
30.0129
30.0589
30.1046
30.1502
30.1954
30.2404
30.2852
30.3296
30.3737
30.4176
30.4611
30.5044
30.5473
30.5898
30.632
30.6739
30.7154
30.7566
30.7973
30.8377
30.8778
30.9174
30.9566
30.9954
31.0339
31.0718
31.1094
31.1466
31.1833
31.2196
31.2554
31.2908
31.3258
31.3602
31.3943
31.4278
31.4609
31.4935
31.5257
31.5573
31.5885
31.6192
31.6494
31.679
31.7082
31.7369
31.7651
31.7928
31.82
31.8466
31.8727
31.8983
31.9234
31.948
31.972
31.9955
32.0185
32.041
32.0629
32.0842
32.1051
32.1253
32.1451
32.1643
32.1829
32.201
32.2186
32.2355
32.252
32.2679
32.2832
32.298
32.3122
32.3258
32.3389
32.3515
32.3634
32.3748
32.3857
32.3959
32.4056
32.4148
32.4233
32.4314
32.4388
32.4456
32.4519
32.4577
32.4628
32.4674
32.4714
32.4748
32.4777
32.48
32.4817
32.4829
32.4834
42.156
42.1472
42.1293
42.1032
42.069
42.0274
41.9788
41.9236
41.8623
41.7952
41.7225
41.6446
41.5615
41.4736
41.3809
41.2836
41.1818
41.0757
40.9654
40.8509
40.7325
40.6102
40.4842
40.3546
40.2215
40.0851
39.9454
39.8027
39.657
39.5084
39.3572
39.2034
39.0472
38.8886
38.728
38.5652
38.4006
38.2342
38.0662
37.8966
37.7257
37.5535
37.3801
37.2058
37.0305
36.8545
36.6779
36.5007
36.3232
36.1453
35.9672
35.7891
35.611
35.4331
35.2554
35.0781
34.9012
34.7249
34.5492
34.3743
34.2002
34.0271
33.8549
33.6839
33.5141
33.3455
33.1782
33.0124
32.8481
32.6853
32.5242
32.3648
32.2071
32.0512
31.8972
31.7452
31.5951
31.4471
31.3012
31.1573
31.0157
30.8763
30.7391
30.6043
30.4717
30.3415
30.2138
30.0884
29.9655
29.845
29.727
29.6116
29.4986
29.3882
29.2803
29.1751
29.0723
28.9722
28.8746
28.7797
28.6873
28.5975
28.5103
28.4256
28.3436
28.2641
28.1872
28.1128
28.041
27.9718
27.905
27.8408
27.779
27.7198
27.663
27.6086
27.5566
27.5071
27.4599
27.4151
27.3726
27.3324
27.2945
27.2588
27.2254
27.1942
27.1652
27.1383
27.1135
27.0908
27.0701
27.0515
27.0349
27.0203
27.0075
26.9967
26.9878
26.9807
26.9754
26.9719
26.9701
26.97
26.9716
26.9749
26.9797
26.9862
26.9942
27.0037
27.0146
27.0271
27.0409
27.0561
27.0727
27.0906
27.1097
27.1302
27.1518
27.1746
27.1986
27.2237
27.2499
27.2772
27.3055
27.3348
27.365
27.3962
27.4284
27.4614
27.4952
27.5299
27.5654
27.6016
27.6386
27.6763
27.7147
27.7538
27.7934
27.8337
27.8746
27.916
27.958
28.0004
28.0434
28.0868
28.1306
28.1749
28.2195
28.2645
28.3099
28.3556
28.4016
28.4478
28.4944
28.5411
28.5881
28.6353
28.6827
28.7303
28.7779
28.8258
28.8737
28.9217
28.9698
29.0179
29.0661
29.1144
29.1626
29.2108
29.259
29.3072
29.3553
29.4033
29.4513
29.4992
29.5469
29.5946
29.6421
29.6895
29.7367
29.7838
29.8306
29.8773
29.9238
29.97
30.0161
30.0619
30.1074
30.1527
30.1978
30.2425
30.287
30.3312
30.3751
30.4186
30.4619
30.5048
30.5474
30.5896
30.6315
30.6731
30.7142
30.755
30.7955
30.8355
30.8751
30.9144
30.9532
30.9917
31.0297
31.0673
31.1044
31.1412
31.1775
31.2133
31.2487
31.2837
31.3182
31.3522
31.3858
31.4189
31.4515
31.4837
31.5153
31.5465
31.5772
31.6074
31.6371
31.6663
31.695
31.7232
31.7508
31.778
31.8047
31.8308
31.8564
31.8815
31.9061
31.9301
31.9536
31.9766
31.9991
32.021
32.0423
32.0632
32.0834
32.1032
32.1224
32.141
32.1591
32.1767
32.1937
32.2101
32.226
32.2413
32.2561
32.2703
32.2839
32.297
32.3096
32.3215
32.3329
32.3438
32.3541
32.3638
32.3729
32.3815
32.3895
32.3969
32.4038
32.4101
32.4158
32.4209
32.4255
32.4295
32.433
32.4358
32.4381
32.4398
32.441
32.4416
42.116
42.1073
42.0896
42.0638
42.0298
41.9884
41.9399
41.8848
41.8234
41.7562
41.6832
41.605
41.5216
41.4332
41.3401
41.2423
41.1401
41.0335
40.9226
40.8077
40.6888
40.5661
40.4396
40.3095
40.176
40.0391
39.899
39.7558
39.6097
39.4607
39.3091
39.1549
38.9983
38.8394
38.6784
38.5153
38.3504
38.1836
38.0153
37.8454
37.6742
37.5017
37.3281
37.1534
36.978
36.8017
36.6248
36.4474
36.2696
36.0915
35.9133
35.735
35.5567
35.3786
35.2007
35.0232
34.8462
34.6698
34.494
34.3189
34.1447
33.9715
33.7992
33.6281
33.4582
33.2895
33.1222
32.9564
32.792
32.6292
32.468
32.3086
32.1509
31.995
31.841
31.689
31.5389
31.3909
31.245
31.1012
30.9597
30.8203
30.6832
30.5484
30.4159
30.2858
30.1581
30.0328
29.91
29.7896
29.6718
29.5564
29.4436
29.3333
29.2256
29.1204
29.0179
28.9179
28.8205
28.7256
28.6334
28.5438
28.4567
28.3723
28.2904
28.2111
28.1344
28.0602
27.9886
27.9195
27.8529
27.7889
27.7274
27.6683
27.6117
27.5575
27.5058
27.4564
27.4095
27.3648
27.3226
27.2826
27.2449
27.2095
27.1763
27.1453
27.1164
27.0898
27.0652
27.0427
27.0223
27.0039
26.9875
26.9731
26.9606
26.95
26.9413
26.9344
26.9293
26.926
26.9245
26.9246
26.9264
26.9299
26.935
26.9416
26.9498
26.9595
26.9707
26.9833
26.9974
27.0128
27.0296
27.0477
27.067
27.0876
27.1095
27.1325
27.1567
27.182
27.2083
27.2358
27.2643
27.2938
27.3242
27.3556
27.3879
27.4211
27.4551
27.49
27.5256
27.562
27.5992
27.637
27.6756
27.7148
27.7546
27.7951
27.8361
27.8777
27.9198
27.9624
28.0055
28.049
28.093
28.1374
28.1821
28.2273
28.2728
28.3186
28.3647
28.4111
28.4577
28.5046
28.5518
28.5991
28.6466
28.6942
28.742
28.7899
28.838
28.8861
28.9343
28.9825
29.0308
29.0791
29.1274
29.1758
29.224
29.2723
29.3205
29.3686
29.4167
29.4646
29.5125
29.5602
29.6078
29.6553
29.7026
29.7497
29.7966
29.8434
29.8899
29.9362
29.9823
30.0282
30.0738
30.1192
30.1643
30.2091
30.2536
30.2978
30.3418
30.3854
30.4287
30.4717
30.5143
30.5566
30.5985
30.6401
30.6813
30.7222
30.7626
30.8027
30.8424
30.8817
30.9206
30.959
30.9971
31.0347
31.0719
31.1087
31.145
31.1809
31.2163
31.2513
31.2858
31.3199
31.3535
31.3866
31.4192
31.4514
31.4831
31.5143
31.545
31.5752
31.605
31.6342
31.6629
31.6911
31.7188
31.746
31.7727
31.7988
31.8244
31.8496
31.8741
31.8982
31.9217
31.9447
31.9672
31.9891
32.0105
32.0313
32.0516
32.0713
32.0905
32.1092
32.1273
32.1449
32.1619
32.1783
32.1942
32.2095
32.2243
32.2385
32.2522
32.2653
32.2778
32.2898
32.3012
32.3121
32.3223
32.3321
32.3412
32.3498
32.3578
32.3652
32.3721
32.3784
32.3841
32.3893
32.3938
32.3979
32.4013
32.4042
32.4065
32.4082
32.4093
32.4099
42.067
42.0583
42.0407
42.0149
41.981
41.9396
41.891
41.8357
41.7741
41.7064
41.6331
41.5544
41.4705
41.3816
41.2879
41.1896
41.0868
40.9797
40.8683
40.7528
40.6334
40.5102
40.3832
40.2526
40.1186
39.9812
39.8407
39.6971
39.5505
39.4012
39.2491
39.0946
38.9376
38.7783
38.6169
38.4535
38.2882
38.1211
37.9525
37.7823
37.6108
37.438
37.2641
37.0892
36.9135
36.737
36.5599
36.3823
36.2043
36.026
35.8475
35.669
35.4906
35.3123
35.1343
34.9567
34.7795
34.603
34.427
34.2519
34.0776
33.9043
33.732
33.5608
33.3908
33.2221
33.0548
32.8889
32.7245
32.5617
32.4005
32.2411
32.0834
31.9275
31.7736
31.6216
31.4716
31.3236
31.1778
31.0341
30.8926
30.7533
30.6163
30.4816
30.3492
30.2192
30.0917
29.9665
29.8438
29.7236
29.6059
29.4907
29.378
29.2679
29.1603
29.0553
28.9529
28.8531
28.7559
28.6612
28.5692
28.4798
28.3929
28.3087
28.227
28.1479
28.0714
27.9975
27.9261
27.8572
27.7909
27.7271
27.6658
27.6069
27.5506
27.4966
27.4451
27.396
27.3493
27.3049
27.2629
27.2232
27.1857
27.1505
27.1176
27.0868
27.0583
27.0318
27.0075
26.9853
26.9651
26.947
26.9308
26.9166
26.9044
26.8941
26.8856
26.8789
26.8741
26.871
26.8697
26.8701
26.8722
26.8759
26.8812
26.8881
26.8965
26.9065
26.9179
26.9307
26.945
26.9607
26.9776
26.9959
27.0155
27.0364
27.0584
27.0816
27.106
27.1315
27.1581
27.1858
27.2145
27.2441
27.2748
27.3064
27.3389
27.3722
27.4064