/*--------------------------------*- C++ -*----------------------------------*\
| =========                 |                                                 |
| \\      /  F ield         | OpenFOAM: The Open Source CFD Toolbox           |
|  \\    /   O peration     | Version:  2212                                  |
|   \\  /    A nd           | Website:  www.openfoam.com                      |
|    \\/     M anipulation  |                                                 |
\*---------------------------------------------------------------------------*/
FoamFile
{
    version     2.0;
    format      ascii;
    arch        "LSB;label=32;scalar=64";
    class       surfaceScalarField;
    location    "570";
    object      phi;
}
// * * * * * * * * * * * * * * * * * * * * * * * * * * * * * * * * * * * * * //

dimensions      [1 0 -1 0 0 0 0];

oriented        oriented;

internalField   nonuniform List<scalar> 
408640
(
-1622.09
1623.77
-3205.54
1583.95
-4713.38
1508.34
-6124.57
1411.68
-7434.57
1310.49
-8651.35
1217.28
-9790.65
1139.8
-10870.7
1080.55
-11908.6
1038.46
-12918.5
1010.41
-13910.7
992.724
-14892.2
981.993
-15867.1
975.495
-16837.9
971.255
-17805.3
967.964
-18769.6
964.818
-19730.4
961.368
-20687.3
957.394
-21639.6
952.818
-22586.7
947.634
-23528.1
941.879
-24463.2
935.601
-25391.5
928.853
-26312.7
921.685
-27226.3
914.14
-28132.1
906.256
-29029.7
898.066
-29918.8
889.596
-30799.1
880.871
-31670.6
871.909
-32532.8
862.73
-33385.7
853.347
-34229
843.775
-35062.6
834.026
-35886.2
824.111
-36699.8
814.039
-37503.1
803.82
-38296.2
793.462
-39078.7
782.974
-39850.6
772.362
-40611.8
761.635
-41362.2
750.799
-42101.6
739.86
-42830
728.825
-43547.3
717.7
-44253.4
706.49
-44948.2
695.201
-45631.6
683.84
-46303.6
672.41
-46964.1
660.918
-47613.1
649.369
-48250.5
637.767
-48876.2
626.118
-49490.3
614.427
-50092.6
602.698
-50683.2
590.935
-51262
579.145
-51828.9
567.33
-52384.1
555.496
-52927.4
543.647
-53458.8
531.786
-53978.4
519.92
-54486.2
508.051
-54982
496.183
-55466
484.322
-55938.2
472.469
-56398.5
460.631
-56847
448.81
-57283.7
437.009
-57708.7
425.234
-58121.9
413.486
-58523.3
401.771
-58913.2
390.09
-59291.3
378.449
-59657.9
366.849
-60012.9
355.294
-60356.5
343.788
-60688.6
332.333
-61009.2
320.932
-61318.6
309.589
-61616.7
298.306
-61903.5
287.085
-62179.2
275.931
-62443.8
264.844
-62697.5
253.828
-62940.1
242.886
-63171.9
232.019
-63393
221.23
-63603.3
210.522
-63803
199.895
-63992.2
189.353
-64170.9
178.898
-64339.2
168.531
-64497.3
158.254
-64645.2
148.069
-64783.1
137.977
-64910.9
127.982
-65028.8
118.082
-65136.9
108.282
-65235.4
98.5808
-65324.2
88.9808
-65403.6
79.4832
-65473.5
70.0891
-65534.2
60.7996
-65585.7
51.6158
-65628.2
42.5385
-65661.6
33.5688
-65686.2
24.7075
-65702.1
15.9552
-65709.3
7.31279
-65708
-1.21919
-65698.3
-9.64016
-65680.3
-17.9496
-65654
-26.1471
-65619.7
-34.2322
-65577.5
-42.2047
-65527.3
-50.0643
-65469.5
-57.8107
-65404
-65.4439
-65331
-72.9637
-65250.6
-80.3701
-65162.9
-87.6631
-65068
-94.8428
-64966.1
-101.909
-64857.2
-108.863
-64741.5
-115.703
-64619
-122.432
-64490
-129.047
-64354.4
-135.551
-64212.5
-141.944
-64064.3
-148.225
-63909.9
-154.396
-63749.5
-160.457
-63583.1
-166.408
-63410.9
-172.251
-63232.9
-177.985
-63049.3
-183.611
-62860.2
-189.131
-62665.8
-194.544
-62466
-199.852
-62261
-205.055
-62050.9
-210.154
-61835.8
-215.15
-61615.8
-220.044
-61391.1
-224.837
-61161.6
-229.529
-60927.6
-234.122
-60689.1
-238.616
-60446.1
-243.013
-60198.9
-247.313
-59947.5
-251.518
-59692
-255.628
-59432.5
-259.645
-59169
-263.569
-58901.7
-267.402
-58630.7
-271.145
-58356.1
-274.798
-58077.8
-278.364
-57796.1
-281.842
-57511.1
-285.234
-57222.7
-288.542
-56931.1
-291.766
-56636.3
-294.908
-56338.5
-297.968
-56037.7
-300.948
-55734.1
-303.849
-55427.6
-306.673
-55118.3
-309.419
-54806.4
-312.09
-54491.9
-314.687
-54174.9
-317.21
-53855.5
-319.661
-53533.6
-322.041
-53209.5
-324.352
-52883.1
-326.594
-52554.6
-328.768
-52223.9
-330.876
-51891.2
-332.919
-51556.6
-334.898
-51220
-336.815
-50881.6
-338.669
-50541.4
-340.463
-50199.4
-342.197
-49855.8
-343.873
-49510.6
-345.491
-49163.8
-347.054
-48815.5
-348.561
-48465.8
-350.014
-48114.7
-351.415
-47762.2
-352.763
-47408.4
-354.061
-47053.4
-355.309
-46697.2
-356.509
-46339.8
-357.661
-45981.4
-358.766
-45621.9
-359.825
-45261.3
-360.84
-44899.8
-361.811
-44537.4
-362.74
-44174.1
-363.627
-43810
-364.474
-43445.1
-365.28
-43079.4
-366.048
-42712.9
-366.778
-42345.8
-367.471
-41978
-368.128
-41609.6
-368.75
-41240.7
-369.338
-40871.1
-369.893
-40501.1
-370.415
-40130.6
-370.905
-39759.6
-371.364
-39388.2
-371.794
-39016.4
-372.195
-38644.2
-372.567
-38271.7
-372.911
-37898.9
-373.229
-37525.7
-373.521
-37152.4
-373.788
-36778.8
-374.031
-36404.9
-374.249
-36030.9
-374.445
-35656.7
-374.618
-35282.4
-374.77
-34907.9
-374.901
-34533.3
-375.012
-34158.7
-375.104
-33783.9
-375.177
-33409.1
-375.231
-33034.3
-375.268
-32659.5
-375.288
-32284.7
-375.292
-31909.9
-375.28
-31535.1
-375.254
-31160.3
-375.212
-30785.6
-375.157
-30411
-375.089
-30036.5
-375.007
-29662.1
-374.914
-29287.8
-374.809
-28913.6
-374.693
-28539.5
-374.566
-28165.6
-374.429
-27791.8
-374.282
-27418.2
-374.127
-27044.7
-373.963
-26671.4
-373.79
-26298.3
-373.61
-25925.4
-373.423
-25552.7
-373.228
-25180.2
-373.028
-24807.9
-372.821
-24435.9
-372.609
-24064
-372.392
-23692.4
-372.17
-23321
-371.944
-22949.8
-371.714
-22578.9
-371.48
-22208.2
-371.243
-21837.7
-371.003
-21467.5
-370.761
-21097.6
-370.517
-20727.9
-370.271
-20358.4
-370.023
-19989.2
-369.774
-19620.3
-369.524
-19251.5
-369.274
-18883.1
-369.024
-18514.9
-368.773
-18147
-368.523
-17779.3
-368.274
-17411.8
-368.025
-17044.6
-367.777
-16677.7
-367.531
-16311
-367.287
-15944.6
-367.044
-15578.3
-366.804
-15212.4
-366.566
-14846.7
-366.33
-14481.2
-366.098
-14115.9
-365.868
-13750.9
-365.641
-13386
-365.418
-13021.5
-365.199
-12657.1
-364.983
-12292.9
-364.772
-11929
-364.564
-11565.2
-364.361
-11201.7
-364.162
-10838.3
-363.968
-10475.2
-363.779
-10112.2
-363.594
-9749.43
-363.415
-9386.81
-363.241
-9024.37
-363.072
-8662.09
-362.909
-8299.97
-362.752
-7938
-362.6
-7576.17
-362.454
-7214.49
-362.314
-6852.95
-362.18
-6491.53
-362.053
-6130.23
-361.932
-5769.05
-361.817
-5407.98
-361.71
-5047.01
-361.608
-4686.14
-361.514
-4325.35
-361.428
-3964.64
-361.348
-3604.01
-361.276
-3243.44
-361.211
-2882.93
-361.154
-2522.46
-361.105
-2162.04
-361.063
-1801.66
-361.029
-1441.3
-361.002
-1080.96
-360.983
-720.634
-360.97
-360.315
-360.963
-360.959
-1596.6
3220.86
-3157.28
3145.13
-4648.97
3000.52
-6051.96
2815.15
-7360.9
2619.91
-8582.03
2438.9
-9728.92
2287.2
-10817.9
2170.05
-11864.8
2085.83
-12882.7
2028.83
-13881.6
1992.18
-14868.4
1969.35
-15847.5
1955.08
-16821.2
1945.52
-17790.8
1938.06
-18756.5
1931.08
-19718.3
1923.66
-20675.7
1915.32
-21628.2
1905.87
-22575.3
1895.29
-23516.5
1883.61
-24451.4
1870.93
-25379.3
1857.34
-26300.1
1842.93
-27213.2
1827.79
-28118.5
1811.97
-29015.5
1795.56
-29904
1778.59
-30783.7
1761.12
-31654.5
1743.17
-32516.1
1724.8
-33368.3
1706.02
-34210.9
1686.87
-35043.8
1667.36
-35866.7
1647.53
-36679.6
1627.38
-37482.3
1606.94
-38274.6
1586.22
-39056.4
1565.24
-39827.6
1544.02
-40588.1
1522.56
-41337.8
1500.89
-42076.5
1479.01
-42804.2
1456.94
-43520.8
1434.69
-44226.1
1412.27
-44920.2
1389.7
-45603
1366.98
-46274.3
1344.12
-46934.1
1321.14
-47582.4
1298.05
-48219.1
1274.85
-48844.2
1251.55
-49457.5
1228.18
-50059.2
1204.72
-50649.1
1181.2
-51227.2
1157.63
-51793.5
1134
-52348
1110.34
-52890.7
1086.65
-53421.5
1062.93
-53940.4
1039.2
-54447.5
1015.47
-54942.8
991.745
-55426.2
968.028
-55897.7
944.33
-56357.4
920.66
-56805.3
897.024
-57241.5
873.43
-57665.8
849.886
-58078.5
826.399
-58479.4
802.976
-58868.6
779.623
-59246.3
756.347
-59612.3
733.155
-59966.8
710.054
-60309.8
687.049
-60641.4
664.147
-60961.5
641.354
-61270.4
618.676
-61568
596.118
-61854.3
573.686
-62129.6
551.385
-62393.7
529.221
-62646.9
507.198
-62889.1
485.322
-63120.5
463.597
-63341.1
442.028
-63551
420.62
-63750.3
399.376
-63939
378.302
-64117.4
357.4
-64285.3
336.675
-64443
316.13
-64590.6
295.77
-64728
275.596
-64855.5
255.614
-64973.1
235.825
-65080.9
216.233
-65179
196.84
-65267.6
177.65
-65346.6
158.664
-65416.3
139.885
-65476.7
121.316
-65527.9
102.957
-65570.1
84.8124
-65603.3
66.8824
-65627.6
49.1691
-65643.3
31.674
-65650.3
14.3985
-65648.7
-2.65613
-65638.8
-19.4887
-65620.6
-36.0983
-65594.2
-52.484
-65559.7
-68.6451
-65517.2
-84.5808
-65467
-100.291
-65408.9
-115.775
-65343.3
-131.032
-65270.2
-146.062
-65189.6
-160.866
-65101.8
-175.443
-65006.8
-189.794
-64904.8
-203.918
-64795.8
-217.816
-64680
-231.489
-64557.5
-244.936
-64428.4
-258.159
-64292.8
-271.159
-64150.8
-283.935
-64002.6
-296.489
-63848.2
-308.823
-63687.7
-320.936
-63521.3
-332.83
-63349.1
-344.507
-63171.1
-355.967
-62987.6
-367.212
-62798.5
-378.243
-62604
-389.061
-62404.3
-399.669
-62199.3
-410.068
-61989.3
-420.259
-61774.2
-430.243
-61554.3
-440.024
-61329.6
-449.602
-61100.3
-458.979
-60866.3
-468.158
-60627.9
-477.139
-60385.1
-485.926
-60138
-494.52
-59886.7
-502.922
-59631.3
-511.136
-59371.9
-519.163
-59108.6
-527.005
-58841.4
-534.664
-58570.6
-542.143
-58296
-549.444
-58018
-556.568
-57736.4
-563.519
-57451.5
-570.298
-57163.3
-576.907
-56871.9
-583.35
-56577.3
-589.627
-56279.7
-595.742
-55979.2
-601.697
-55675.7
-607.494
-55369.4
-613.135
-55060.4
-618.622
-54748.7
-623.959
-54434.4
-629.147
-54117.7
-634.189
-53798.4
-639.086
-53476.8
-643.842
-53153
-648.458
-52826.8
-652.937
-52498.5
-657.282
-52168.1
-661.493
-51835.7
-665.575
-51501.3
-669.529
-51165
-673.357
-50826.9
-677.061
-50487
-680.645
-50145.3
-684.109
-49802
-687.457
-49457
-690.69
-49110.5
-693.811
-48762.6
-696.822
-48413.1
-699.725
-48062.3
-702.523
-47710.1
-705.216
-47356.7
-707.809
-47002
-710.302
-46646.1
-712.697
-46289.1
-714.997
-45930.9
-717.205
-45571.7
-719.321
-45211.6
-721.348
-44850.4
-723.287
-44488.3
-725.142
-44125.4
-726.913
-43761.6
-728.603
-43397
-730.214
-43031.6
-731.747
-42665.5
-733.205
-42298.8
-734.589
-41931.4
-735.901
-41563.3
-737.142
-41194.7
-738.316
-40825.5
-739.422
-40455.9
-740.464
-40085.7
-741.443
-39715.1
-742.36
-39344.1
-743.217
-38972.6
-744.016
-38600.8
-744.759
-38228.7
-745.446
-37856.2
-746.08
-37483.5
-746.663
-37110.5
-747.195
-36737.3
-747.678
-36363.8
-748.114
-35990.2
-748.503
-35616.4
-748.849
-35242.4
-749.151
-34868.4
-749.412
-34494.2
-749.633
-34119.9
-749.815
-33745.6
-749.959
-33371.2
-750.067
-32996.8
-750.139
-32622.3
-750.179
-32247.9
-750.185
-31873.5
-750.161
-31499.1
-750.106
-31124.8
-750.022
-30750.5
-749.911
-30376.3
-749.773
-30002.1
-749.61
-29628.1
-749.422
-29254.2
-749.211
-28880.4
-748.978
-28506.8
-748.724
-28133.2
-748.449
-27759.9
-748.155
-27386.7
-747.843
-27013.6
-747.514
-26640.7
-747.168
-26268.1
-746.808
-25895.6
-746.432
-25523.3
-746.043
-25151.2
-745.641
-24779.3
-745.228
-24407.7
-744.803
-24036.2
-744.368
-23665
-743.924
-23294
-743.471
-22923.3
-743.011
-22552.7
-742.543
-22182.5
-742.069
-21812.4
-741.589
-21442.7
-741.104
-21073.1
-740.615
-20703.8
-740.122
-20334.8
-739.626
-19966
-739.128
-19597.5
-738.629
-19229.2
-738.128
-18861.1
-737.627
-18493.4
-737.126
-18125.8
-736.625
-17758.6
-736.126
-17391.6
-735.629
-17024.8
-735.134
-16658.3
-734.641
-16292
-734.152
-15926
-733.667
-15560.2
-733.186
-15194.6
-732.71
-14829.3
-732.238
-14464.3
-731.773
-14099.4
-731.313
-13734.8
-730.86
-13370.4
-730.414
-13006.2
-729.975
-12642.3
-729.544
-12278.6
-729.12
-11915
-728.705
-11551.7
-728.299
-11188.6
-727.901
-10825.7
-727.513
-10462.9
-727.134
-10100.4
-726.765
-9738.01
-726.407
-9375.82
-726.059
-9013.8
-725.721
-8651.94
-725.395
-8290.24
-725.08
-7928.69
-724.776
-7567.29
-724.484
-7206.04
-724.205
-6844.91
-723.937
-6483.92
-723.682
-6123.04
-723.44
-5762.29
-723.211
-5401.64
-722.995
-5041.09
-722.793
-4680.64
-722.605
-4320.27
-722.431
-3959.99
-722.272
-3599.78
-722.127
-3239.63
-721.998
-2879.54
-721.884
-2519.51
-721.785
-2159.51
-721.702
-1799.55
-721.634
-1439.61
-721.58
-1079.7
-721.541
-719.793
-721.516
-359.896
-721.502
-721.499
-1567.23
4788.59
-3101.78
4680.15
-4574.4
4473.61
-5967.07
4208.31
-7273.96
3927.28
-8499.55
3664.99
-9655.1
3443.25
-10754.8
3270.22
-11812.6
3144.16
-12840.7
3057.42
-13848.4
3000.41
-14842.4
2963.9
-15827.1
2940.34
-16805.2
2924.11
-17777.9
2911.37
-18746
2899.67
-19709.4
2887.59
-20667.9
2874.36
-21621.2
2859.64
-22568.7
2843.35
-23510.1
2825.53
-24445
2806.27
-25372.8
2785.7
-26293.3
2763.95
-27206.2
2741.12
-28111
2717.31
-29007.6
2692.61
-29895.6
2667.1
-30774.8
2640.84
-31645.1
2613.89
-32506.1
2586.3
-33357.7
2558.11
-34199.7
2529.36
-35032
2500.08
-35854.3
2470.31
-36666.5
2440.07
-37468.5
2409.4
-38260.2
2378.31
-39041.3
2346.84
-39811.9
2315
-40571.7
2282.81
-41320.7
2250.3
-42058.7
2217.48
-42785.7
2184.38
-43501.6
2151
-44206.3
2117.38
-44899.7
2083.52
-45581.8
2049.44
-46252.4
2015.16
-46911.5
1980.69
-47559.2
1946.05
-48195.2
1911.25
-48819.6
1876.32
-49432.3
1841.25
-50033.2
1806.08
-50622.5
1770.8
-51199.9
1735.44
-51765.6
1700.01
-52319.4
1664.53
-52861.4
1628.99
-53391.6
1593.43
-53909.9
1557.85
-54416.4
1522.26
-54911
1486.67
-55393.7
1451.1
-55864.7
1415.57
-56323.8
1380.07
-56771.1
1344.62
-57206.6
1309.24
-57630.3
1273.94
-58042.4
1238.72
-58442.7
1203.59
-58831.4
1168.57
-59208.4
1133.67
-59573.9
1098.89
-59927.8
1064.25
-60270.3
1029.75
-60601.3
995.411
-60920.9
961.232
-61229.2
927.226
-61526.3
893.4
-61812.1
859.763
-62086.8
826.324
-62350.5
793.089
-62603.1
760.067
-62844.9
727.265
-63075.7
694.69
-63295.9
662.349
-63505.3
630.249
-63704.1
598.396
-63892.4
566.797
-64070.3
535.457
-64237.8
504.382
-64395.1
473.578
-64542.2
443.05
-64679.3
412.804
-64806.4
382.843
-64923.6
353.173
-65031
323.798
-65128.7
294.723
-65216.9
265.95
-65295.6
237.485
-65364.9
209.33
-65425
181.489
-65475.8
153.966
-65517.7
126.762
-65550.6
99.8801
-65574.6
73.3238
-65590
47.0947
-65596.7
21.1951
-65594.9
-4.37314
-65584.7
-29.6084
-65566.2
-54.5092
-65539.5
-79.0741
-65504.8
-103.302
-65462.1
-127.192
-65411.6
-150.744
-65353.4
-173.956
-65287.5
-196.828
-65214.2
-219.36
-65133.5
-241.553
-65045.5
-263.405
-64950.3
-284.917
-64848.1
-306.09
-64739
-326.924
-64623
-347.42
-64500.4
-367.578
-64371.1
-387.4
-64235.4
-406.886
-64093.3
-426.038
-63945
-444.857
-63790.5
-463.344
-63629.9
-481.501
-63463.4
-499.33
-63291.1
-516.832
-63113.1
-534.01
-62929.5
-550.865
-62740.4
-567.399
-62545.9
-583.615
-62346.1
-599.515
-62141.1
-615.101
-61931.1
-630.375
-61716.1
-645.341
-61496.2
-660
-61271.5
-674.356
-61042.1
-688.41
-60808.2
-702.167
-60569.8
-715.628
-60327
-728.797
-60080
-741.677
-59828.7
-754.27
-59573.4
-766.58
-59314.1
-778.61
-59050.8
-790.362
-58783.8
-801.841
-58513
-813.049
-58238.6
-823.99
-57960.6
-834.667
-57679.2
-845.083
-57394.4
-855.242
-57106.3
-865.147
-56815
-874.801
-56520.6
-884.208
-56223.2
-893.372
-55922.7
-902.295
-55619.4
-910.981
-55313.3
-919.434
-55004.5
-927.657
-54692.9
-935.654
-54378.9
-943.427
-54062.3
-950.981
-53743.2
-958.32
-53421.8
-965.445
-53098.2
-972.362
-52772.2
-979.073
-52444.2
-985.582
-52114
-991.892
-51781.8
-998.008
-51447.6
-1003.93
-51111.6
-1009.67
-50773.6
-1015.22
-50434
-1020.58
-50092.5
-1025.77
-49749.5
-1030.79
-49404.8
-1035.63
-49058.6
-1040.31
-48710.8
-1044.82
-48361.7
-1049.17
-48011.1
-1053.36
-47659.2
-1057.39
-47306.1
-1061.28
-46951.6
-1065.01
-46596
-1068.6
-46239.3
-1072.04
-45881.5
-1075.35
-45522.6
-1078.52
-45162.7
-1081.55
-44801.9
-1084.46
-44440.1
-1087.23
-44077.4
-1089.89
-43714
-1092.42
-43349.7
-1094.83
-42984.7
-1097.12
-42618.9
-1099.31
-42252.5
-1101.38
-41885.4
-1103.34
-41517.7
-1105.2
-41149.4
-1106.96
-40780.6
-1108.61
-40411.2
-1110.17
-40041.4
-1111.64
-39671.2
-1113.01
-39300.5
-1114.29
-38929.4
-1115.49
-38558
-1116.6
-38186.2
-1117.62
-37814.1
-1118.57
-37441.7
-1119.44
-37069.1
-1120.24
-36696.2
-1120.96
-36323.1
-1121.61
-35949.9
-1122.19
-35576.4
-1122.71
-35202.8
-1123.16
-34829.1
-1123.55
-34455.3
-1123.88
-34081.4
-1124.15
-33707.5
-1124.36
-33333.5
-1124.52
-32959.4
-1124.63
-32585.4
-1124.68
-32211.3
-1124.69
-31837.3
-1124.65
-31463.3
-1124.57
-31089.4
-1124.44
-30715.5
-1124.27
-30341.7
-1124.07
-29967.9
-1123.82
-29594.3
-1123.54
-29220.8
-1123.22
-28847.4
-1122.87
-28474.1
-1122.48
-28101
-1122.07
-27728.1
-1121.63
-27355.2
-1121.16
-26982.6
-1120.66
-26610.1
-1120.14
-26237.9
-1119.6
-25865.8
-1119.04
-25493.9
-1118.45
-25122.2
-1117.85
-24750.7
-1117.23
-24379.5
-1116.59
-24008.5
-1115.94
-23637.7
-1115.27
-23267.1
-1114.59
-22896.7
-1113.9
-22526.6
-1113.19
-22156.8
-1112.48
-21787.2
-1111.76
-21417.8
-1111.03
-21048.7
-1110.3
-20679.8
-1109.56
-20311.2
-1108.82
-19942.8
-1108.07
-19574.7
-1107.32
-19206.8
-1106.57
-18839.2
-1105.81
-18471.8
-1105.06
-18104.7
-1104.31
-17737.9
-1103.56
-17371.3
-1102.81
-17004.9
-1102.07
-16638.8
-1101.33
-16273
-1100.6
-15907.3
-1099.87
-15542
-1099.15
-15176.9
-1098.43
-14812
-1097.73
-14447.3
-1097.03
-14082.9
-1096.34
-13718.7
-1095.66
-13354.7
-1094.99
-12991
-1094.33
-12627.5
-1093.68
-12264.1
-1093.05
-11901
-1092.42
-11538.1
-1091.81
-11175.4
-1091.22
-10812.9
-1090.63
-10450.6
-1090.07
-10088.5
-1089.51
-9726.56
-1088.98
-9364.79
-1088.45
-9003.19
-1087.95
-8641.76
-1087.46
-8280.48
-1086.98
-7919.36
-1086.53
-7558.38
-1086.09
-7197.55
-1085.67
-6836.85
-1085.27
-6476.28
-1084.89
-6115.83
-1084.52
-5755.5
-1084.18
-5395.27
-1083.86
-5035.15
-1083.55
-4675.12
-1083.27
-4315.18
-1083.01
-3955.32
-1082.77
-3595.54
-1082.55
-3235.81
-1082.36
-2876.15
-1082.19
-2516.54
-1082.04
-2156.96
-1081.92
-1797.43
-1081.81
-1437.92
-1081.73
-1078.42
-1081.68
-718.944
-1081.64
-359.471
-1081.62
-1081.61
-1529.33
6318.38
-3030.2
6181.5
-4478.14
5922.02
-5857.24
5587.89
-7161.22
5231.74
-8392.46
4896.72
-9559.32
4610.61
-10673.2
4384.57
-11745.8
4217.29
-12787.7
4099.91
-13807.6
4020.82
-14811.8
3968.61
-15804.7
3933.77
-16789.2
3909.09
-17766.8
3889.57
-18738.6
3871.94
-19704.7
3854.25
-20665.2
3835.39
-21619.9
3814.85
-22568.5
3792.43
-23510.6
3768.14
-24445.8
3742.05
-25373.9
3714.31
-26294.5
3685.06
-27207.3
3654.42
-28112.1
3622.52
-29008.4
3589.47
-29896.2
3555.35
-30775.1
3520.25
-31645
3484.25
-32505.6
3447.4
-33356.8
3409.76
-34198.3
3371.38
-35030.1
3332.31
-35851.9
3292.58
-36663.6
3252.24
-37465.1
3211.32
-38256.2
3169.85
-39036.7
3127.87
-39806.7
3085.4
-40565.9
3042.47
-41314.3
2999.11
-42051.7
2955.34
-42778.1
2911.2
-43493.4
2866.69
-44197.5
2821.85
-44890.3
2776.7
-45571.7
2731.26
-46241.7
2685.55
-46900.2
2639.59
-47547.1
2593.4
-48182.5
2547.01
-48806.2
2500.43
-49418.3
2453.68
-50018.6
2406.78
-50607.2
2359.75
-51184
2312.61
-51749
2265.37
-52302.2
2218.06
-52843.5
2170.68
-53373
2123.27
-53890.7
2075.83
-54396.5
2028.38
-54890.4
1980.94
-55372.5
1933.53
-55842.8
1886.15
-56301.3
1838.83
-56747.9
1791.58
-57182.8
1744.41
-57605.9
1697.34
-58017.3
1650.39
-58417
1603.57
-58805
1556.88
-59181.4
1510.36
-59546.3
1464
-59899.6
1417.82
-60241.4
1371.84
-60571.8
1326.06
-60890.8
1280.5
-61198.5
1235.17
-61495
1190.08
-61780.2
1145.24
-62054.3
1100.67
-62317.4
1056.37
-62569.5
1012.35
-62810.6
968.632
-63041
925.213
-63260.5
882.106
-63469.4
839.32
-63667.7
796.864
-63855.4
754.746
-64032.8
712.975
-64199.8
671.557
-64356.5
630.501
-64503.1
589.812
-64639.7
549.499
-64766.2
509.568
-64882.9
470.024
-64989.9
430.874
-65087.1
392.123
-65174.8
353.776
-65253
315.839
-65321.9
278.317
-65381.5
241.213
-65432
204.531
-65473.4
168.277
-65505.8
132.452
-65529.5
97.061
-65544.4
62.1065
-65550.7
27.5913
-65548.5
-6.482
-65537.9
-40.1113
-65519
-73.2944
-65492
-106.03
-65456.9
-138.316
-65413.9
-170.151
-65363.1
-201.535
-65304.5
-232.467
-65238.3
-262.945
-65164.7
-292.97
-65083.7
-322.542
-64995.4
-351.66
-64899.9
-380.325
-64797.5
-408.538
-64688.1
-436.298
-64571.9
-463.608
-64449
-490.468
-64319.5
-516.879
-64183.5
-542.842
-64041.2
-568.36
-63892.6
-593.434
-63737.9
-618.066
-63577.2
-642.258
-63410.5
-666.013
-63238.1
-689.332
-63059.9
-712.218
-62876.1
-734.674
-62686.9
-756.702
-62492.2
-778.307
-62292.3
-799.489
-62087.2
-820.253
-61877.1
-840.603
-61661.9
-860.54
-61441.9
-880.069
-61217.2
-899.194
-60987.7
-917.917
-60753.8
-936.243
-60515.3
-954.175
-60272.5
-971.718
-60025.4
-988.875
-59774.1
-1005.65
-59518.7
-1022.05
-59259.4
-1038.07
-58996.1
-1053.73
-58729.1
-1069.02
-58458.3
-1083.95
-58183.9
-1098.52
-57906
-1112.74
-57624.6
-1126.62
-57339.9
-1140.15
-57051.8
-1153.34
-56760.6
-1166.2
-56466.2
-1178.73
-56168.8
-1190.93
-55868.5
-1202.81
-55565.3
-1214.38
-55259.2
-1225.64
-54950.5
-1236.59
-54639.1
-1247.24
-54325.1
-1257.59
-54008.6
-1267.65
-53689.7
-1277.43
-53368.5
-1286.92
-53044.9
-1296.13
-52719.1
-1305.06
-52391.2
-1313.73
-52061.2
-1322.13
-51729.2
-1330.27
-51395.2
-1338.16
-51059.3
-1345.8
-50721.6
-1353.19
-50382.1
-1360.33
-50040.8
-1367.24
-49698
-1373.92
-49353.5
-1380.37
-49007.5
-1386.59
-48660
-1392.6
-48311
-1398.39
-47960.7
-1403.96
-47609
-1409.34
-47256.1
-1414.5
-46901.9
-1419.47
-46546.6
-1424.25
-46190.1
-1428.83
-45832.5
-1433.23
-45473.9
-1437.45
-45114.3
-1441.49
-44753.7
-1445.36
-44392.2
-1449.05
-44029.8
-1452.58
-43666.6
-1455.95
-43302.7
-1459.16
-42937.9
-1462.21
-42572.5
-1465.11
-42206.3
-1467.87
-41839.5
-1470.48
-41472.1
-1472.95
-41104.2
-1475.29
-40735.7
-1477.49
-40366.6
-1479.56
-39997.2
-1481.51
-39627.2
-1483.33
-39256.8
-1485.04
-38886.1
-1486.62
-38515
-1488.1
-38143.5
-1489.47
-37771.8
-1490.72
-37399.8
-1491.88
-37027.5
-1492.94
-36654.9
-1493.89
-36282.2
-1494.76
-35909.3
-1495.53
-35536.2
-1496.21
-35163
-1496.81
-34789.7
-1497.32
-34416.2
-1497.76
-34042.7
-1498.11
-33669.1
-1498.4
-33295.5
-1498.6
-32921.8
-1498.74
-32548.1
-1498.82
-32174.4
-1498.82
-31800.8
-1498.77
-31427.2
-1498.65
-31053.6
-1498.48
-30680.1
-1498.25
-30306.7
-1497.97
-29933.3
-1497.64
-29560.1
-1497.26
-29187
-1496.83
-28814
-1496.36
-28441.1
-1495.85
-28068.4
-1495.29
-27695.8
-1494.7
-27323.4
-1494.07
-26951.1
-1493.41
-26579.1
-1492.72
-26207.2
-1491.99
-25835.5
-1491.24
-25464
-1490.46
-25092.8
-1489.65
-24721.7
-1488.82
-24350.9
-1487.97
-23980.2
-1487.09
-23609.8
-1486.2
-23239.7
-1485.29
-22869.7
-1484.37
-22500.1
-1483.43
-22130.6
-1482.48
-21761.4
-1481.52
-21392.4
-1480.55
-21023.7
-1479.57
-20655.3
-1478.58
-20287.1
-1477.59
-19919.1
-1476.59
-19551.4
-1475.59
-19184
-1474.58
-18816.8
-1473.58
-18449.8
-1472.57
-18083.2
-1471.57
-17716.7
-1470.57
-17350.5
-1469.58
-16984.6
-1468.58
-16618.9
-1467.6
-16253.5
-1466.62
-15888.3
-1465.65
-15523.4
-1464.68
-15158.7
-1463.73
-14794.2
-1462.79
-14430
-1461.85
-14066
-1460.93
-13702.2
-1460.03
-13338.7
-1459.13
-12975.4
-1458.25
-12612.3
-1457.39
-12249.4
-1456.54
-11886.7
-1455.71
-11524.3
-1454.9
-11162
-1454.1
-10799.9
-1453.33
-10438
-1452.57
-10076.4
-1451.83
-9714.84
-1451.11
-9353.5
-1450.41
-8992.34
-1449.74
-8631.33
-1449.09
-8270.49
-1448.46
-7909.8
-1447.85
-7549.26
-1447.26
-7188.86
-1446.7
-6828.59
-1446.17
-6468.46
-1445.66
-6108.44
-1445.17
-5748.54
-1444.71
-5388.75
-1444.28
-5029.06
-1443.88
-4669.47
-1443.5
-4309.96
-1443.15
-3950.54
-1442.83
-3591.19
-1442.55
-3231.9
-1442.29
-2872.67
-1442.06
-2513.49
-1441.86
-2154.36
-1441.69
-1795.25
-1441.56
-1436.18
-1441.45
-1077.12
-1441.37
-718.078
-1441.32
-359.04
-1441.3
-1441.29
-1497.03
7815.88
-2969.19
7654.13
-4395.73
7349.03
-5762.57
6955.2
-7063.25
6532.9
-8298.59
6132.55
-9474.66
5787.18
-10600.5
5510.92
-11686
5303.31
-12740.4
5154.83
-13771.5
5052.39
-14785.2
4982.85
-15785.9
4935.04
-16776.7
4900.36
-17759.3
4872.72
-18734.9
4848.05
-19704
4823.86
-20666.7
4798.68
-21623.1
4771.76
-22573
4742.79
-23516
4711.68
-24451.9
4678.51
-25380.5
4643.39
-26301.4
4606.47
-27214.4
4567.9
-28119.2
4527.79
-29015.5
4486.29
-29903.2
4443.49
-30781.9
4399.49
-31651.6
4354.38
-32511.9
4308.23
-33362.8
4261.1
-34204
4213.06
-35035.4
4164.16
-35856.8
4114.45
-36668.1
4063.98
-37469.1
4012.79
-38259.7
3960.93
-39039.8
3908.42
-39809.3
3855.3
-40568
3801.62
-41315.9
3747.4
-42052.8
3692.67
-42778.6
3637.47
-43493.4
3581.83
-44196.9
3525.76
-44889.1
3469.31
-45569.9
3412.5
-46239.3
3355.35
-46897.2
3297.9
-47543.6
3240.16
-48178.4
3182.16
-48801.5
3123.93
-49412.9
3065.49
-50012.6
3006.86
-50600.6
2948.07
-51176.8
2889.14
-51741.1
2830.09
-52293.7
2770.95
-52834.4
2711.74
-53363.3
2652.47
-53880.3
2593.18
-54385.4
2533.87
-54878.8
2474.57
-55360.2
2415.31
-55829.8
2356.09
-56287.6
2296.94
-56733.7
2237.88
-57167.9
2178.93
-57590.3
2120.1
-58001.1
2061.42
-58400.1
2002.9
-58787.5
1944.55
-59163.3
1886.4
-59527.5
1828.46
-59880.2
1770.75
-60221.4
1713.28
-60551.1
1656.07
-60869.5
1599.13
-61176.6
1542.48
-61472.4
1486.13
-61757
1430.09
-62030.5
1374.39
-62292.9
1319.03
-62544.4
1264.02
-62784.9
1209.38
-63014.6
1155.12
-63233.6
1101.25
-63441.9
1047.79
-63639.5
994.733
-63826.7
942.102
-64003.5
889.903
-64169.9
838.147
-64326.1
786.843
-64472.1
736
-64608
685.626
-64734.1
635.73
-64850.2
586.318
-64956.6
537.398
-65053.3
488.978
-65140.4
441.064
-65218.1
393.662
-65286.5
346.778
-65345.6
300.418
-65395.5
254.586
-65436.4
209.288
-65468.4
164.527
-65491.5
120.309
-65506
76.6366
-65511.8
33.5136
-65509.1
-9.05698
-65498.1
-51.0723
-65478.8
-92.5298
-65451.3
-133.427
-65415.8
-173.763
-65372.3
-213.536
-65321.1
-252.744
-65262.1
-291.386
-65195.5
-329.462
-65121.5
-366.971
-65040.1
-403.913
-64951.4
-440.288
-64855.6
-476.097
-64752.8
-511.341
-64643.1
-546.019
-64526.5
-580.133
-64403.3
-613.685
-64273.5
-646.676
-64137.2
-679.108
-63994.6
-710.983
-63845.8
-742.303
-63690.8
-773.071
-63529.8
-803.288
-63362.8
-832.959
-63190.1
-862.085
-63011.7
-890.67
-62827.7
-918.718
-62638.2
-946.231
-62443.3
-973.214
-62243.2
-999.67
-62037.9
-1025.6
-61827.6
-1051.02
-61612.3
-1075.92
-61392.1
-1100.31
-61167.2
-1124.19
-60937.6
-1147.57
-60703.5
-1170.46
-60464.9
-1192.86
-60221.9
-1214.76
-59974.7
-1236.19
-59723.3
-1257.14
-59467.9
-1277.61
-59208.4
-1297.62
-58945.1
-1317.17
-58678
-1336.26
-58407.2
-1354.91
-58132.7
-1373.1
-57854.7
-1390.86
-57573.3
-1408.18
-57288.5
-1425.08
-57000.5
-1441.55
-56709.2
-1457.6
-56414.9
-1473.25
-56117.5
-1488.48
-55817.1
-1503.32
-55513.9
-1517.76
-55207.9
-1531.82
-54899.2
-1545.49
-54587.9
-1558.78
-54274
-1571.71
-53957.6
-1584.27
-53638.7
-1596.46
-53317.5
-1608.31
-52994.1
-1619.81
-52668.4
-1630.96
-52340.6
-1641.78
-52010.6
-1652.27
-51678.7
-1662.43
-51344.9
-1672.27
-51009.1
-1681.8
-50671.5
-1691.03
-50332.1
-1699.95
-49991.1
-1708.57
-49648.3
-1716.9
-49304
-1724.95
-48958.2
-1732.71
-48610.8
-1740.21
-48262.1
-1747.43
-47911.9
-1754.39
-47560.5
-1761.09
-47207.7
-1767.54
-46853.7
-1773.74
-46498.6
-1779.7
-46142.3
-1785.42
-45785
-1790.9
-45426.6
-1796.16
-45067.2
-1801.2
-44706.8
-1806.02
-44345.6
-1810.63
-43983.4
-1815.03
-43620.5
-1819.23
-43256.8
-1823.23
-42892.3
-1827.04
-42527.1
-1830.66
-42161.2
-1834.09
-41794.7
-1837.35
-41427.6
-1840.43
-41059.9
-1843.34
-40691.7
-1846.08
-40322.9
-1848.66
-39953.7
-1851.09
-39584.1
-1853.36
-39214
-1855.48
-38843.6
-1857.46
-38472.8
-1859.3
-38101.6
-1861
-37730.2
-1862.56
-37358.5
-1864
-36986.5
-1865.31
-36614.3
-1866.5
-36241.9
-1867.58
-35869.3
-1868.53
-35496.6
-1869.38
-35123.7
-1870.12
-34750.7
-1870.76
-34377.6
-1871.3
-34004.4
-1871.74
-33631.2
-1872.08
-33257.9
-1872.34
-32884.6
-1872.51
-32511.2
-1872.59
-32137.9
-1872.6
-31764.6
-1872.52
-31391.4
-1872.37
-31018.2
-1872.15
-30645.1
-1871.86
-30272
-1871.51
-29899
-1871.09
-29526.2
-1870.61
-29153.4
-1870.07
-28780.8
-1869.48
-28408.3
-1868.83
-28036
-1868.14
-27663.8
-1867.39
-27291.7
-1866.61
-26919.9
-1865.77
-26548.2
-1864.9
-26176.7
-1863.99
-25805.4
-1863.05
-25434.4
-1862.07
-25063.5
-1861.05
-24692.8
-1860.01
-24322.4
-1858.95
-23952.1
-1857.85
-23582.1
-1856.73
-23212.4
-1855.6
-22842.9
-1854.44
-22473.6
-1853.26
-22104.5
-1852.07
-21735.7
-1850.87
-21367.2
-1849.65
-20998.9
-1848.42
-20630.8
-1847.19
-20263
-1845.94
-19895.5
-1844.69
-19528.2
-1843.44
-19161.2
-1842.18
-18794.4
-1840.93
-18427.9
-1839.67
-18061.6
-1838.42
-17695.6
-1837.16
-17329.9
-1835.92
-16964.3
-1834.68
-16599.1
-1833.44
-16234.1
-1832.22
-15869.3
-1831
-15504.8
-1829.79
-15140.5
-1828.6
-14776.5
-1827.42
-14412.7
-1826.25
-14049.1
-1825.1
-13685.8
-1823.97
-13322.7
-1822.85
-12959.8
-1821.75
-12597.1
-1820.67
-12234.7
-1819.61
-11872.4
-1818.57
-11510.4
-1817.55
-11148.5
-1816.56
-10786.9
-1815.59
-10425.5
-1814.64
-10064.2
-1813.71
-9703.11
-1812.82
-9342.2
-1811.94
-8981.47
-1811.1
-8620.9
-1810.28
-8260.49
-1809.49
-7900.23
-1808.73
-7540.12
-1808
-7180.15
-1807.3
-6820.32
-1806.63
-6460.62
-1805.99
-6101.04
-1805.39
-5741.57
-1804.81
-5382.22
-1804.27
-5022.96
-1803.77
-4663.81
-1803.3
-4304.74
-1802.86
-3945.75
-1802.46
-3586.83
-1802.1
-3227.98
-1801.78
-2869.19
-1801.49
-2510.44
-1801.24
-2151.74
-1801.04
-1793.08
-1800.87
-1434.43
-1800.73
-1075.81
-1800.64
-717.205
-1800.57
-358.602
-1800.54
-1800.54
-1465.75
9282.09
-2910.16
9098.99
-4315.78
8755.13
-5670.25
8310.13
-6967.09
7830.23
-8205.82
7371.76
-9390.46
6972.31
-10527.9
6648.89
-11626.2
6402.12
-12693.2
6222.36
-13735.9
6095.54
-14759.7
6007.21
-15769
5944.84
-16766.7
5898.64
-17755
5861.52
-18735.1
5828.67
-19707.7
5797.03
-20673.3
5764.77
-21631.9
5730.87
-22583.4
5694.86
-23527.8
5656.58
-24464.8
5616.02
-25394.2
5573.28
-26315.7
5528.5
-27229.2
5481.82
-28134.3
5433.39
-29030.8
5383.33
-29918.6
5331.76
-30797.4
5278.78
-31667
5224.49
-32527.3
5168.98
-33378
5112.31
-34219.1
5054.57
-35050.2
4995.8
-35871.4
4936.08
-36682.4
4875.45
-37483.1
4813.96
-38273.4
4751.67
-39053.2
4688.61
-39822.3
4624.83
-40580.6
4560.38
-41328
4495.28
-42064.5
4429.57
-42789.9
4363.3
-43504.2
4296.5
-44207.2
4229.2
-44898.9
4161.44
-45579.2
4093.24
-46248.1
4024.64
-46905.5
3955.68
-47551.4
3886.37
-48185.6
3816.76
-48808.1
3746.87
-49419
3676.73
-50018.1
3606.36
-50605.5
3535.81
-51181.1
3465.08
-51744.9
3394.22
-52296.8
3323.24
-52836.9
3252.18
-53365.2
3181.05
-53881.5
3109.89
-54386.1
3038.72
-54878.7
2967.56
-55359.5
2896.44
-55828.5
2825.38
-56285.7
2754.4
-56731
2683.53
-57164.6
2612.79
-57586.4
2542.19
-57996.4
2471.78
-58394.8
2401.55
-58781.5
2331.54
-59156.6
2261.76
-59520.1
2192.24
-59872.1
2122.99
-60212.6
2054.03
-60541.7
1985.39
-60859.4
1917.07
-61165.8