/*--------------------------------*- C++ -*----------------------------------*\
| =========                 |                                                 |
| \\      /  F ield         | OpenFOAM: The Open Source CFD Toolbox           |
|  \\    /   O peration     | Version:  2212                                  |
|   \\  /    A nd           | Website:  www.openfoam.com                      |
|    \\/     M anipulation  |                                                 |
\*---------------------------------------------------------------------------*/
FoamFile
{
    version     2.0;
    format      ascii;
    arch        "LSB;label=32;scalar=64";
    class       volScalarField;
    location    "410";
    object      p_rgh;
}
// * * * * * * * * * * * * * * * * * * * * * * * * * * * * * * * * * * * * * //

dimensions      [1 -1 -2 0 0 0 0];

internalField   nonuniform List<scalar> 
204800
(
28.1248
28.1122
28.0864
28.0483
27.9979
27.9357
27.8624
27.7784
27.6844
27.581
27.469
27.3489
27.2214
27.087
26.9464
26.8
26.6484
26.4921
26.3314
26.1667
25.9986
25.8272
25.653
25.4763
25.2974
25.1165
24.934
24.7501
24.5651
24.3793
24.1928
24.0059
23.8189
23.6319
23.4452
23.259
23.0734
22.8887
22.7051
22.5227
22.3417
22.1622
21.9845
21.8087
21.6349
21.4632
21.2939
21.127
20.9626
20.8009
20.642
20.4861
20.3331
20.1832
20.0364
19.893
19.7529
19.6163
19.4831
19.3535
19.2275
19.1052
18.9867
18.8719
18.761
18.6539
18.5507
18.4514
18.3561
18.2648
18.1774
18.0941
18.0148
17.9395
17.8682
17.8009
17.7377
17.6785
17.6232
17.572
17.5247
17.4814
17.4419
17.4064
17.3748
17.347
17.3231
17.3029
17.2864
17.2736
17.2645
17.2591
17.2572
17.2588
17.2639
17.2725
17.2844
17.2996
17.3182
17.3399
17.3649
17.3929
17.424
17.4581
17.4952
17.5351
17.5779
17.6235
17.6717
17.7226
17.7761
17.8321
17.8906
17.9515
18.0147
18.0803
18.148
18.218
18.29
18.3641
18.4402
18.5182
18.598
18.6797
18.7632
18.8483
18.9351
19.0235
19.1134
19.2048
19.2976
19.3918
19.4872
19.584
19.682
19.7811
19.8813
19.9826
20.0849
20.1882
20.2924
20.3975
20.5034
20.6101
20.7175
20.8256
20.9344
21.0437
21.1537
21.2642
21.3751
21.4866
21.5984
21.7106
21.8232
21.9361
22.0492
22.1626
22.2762
22.39
22.5039
22.618
22.7321
22.8463
22.9605
23.0747
23.1888
23.303
23.417
23.5309
23.6448
23.7584
23.8719
23.9852
24.0983
24.2111
24.3236
24.4359
24.5479
24.6596
24.7709
24.8819
24.9925
25.1027
25.2125
25.3218
25.4308
25.5392
25.6472
25.7548
25.8618
25.9683
26.0743
26.1798
26.2847
26.3891
26.4929
26.5961
26.6987
26.8007
26.9021
27.0029
27.103
27.2025
27.3014
27.3996
27.4971
27.594
27.6901
27.7856
27.8804
27.9745
28.0679
28.1605
28.2524
28.3436
28.4341
28.5238
28.6128
28.701
28.7885
28.8752
28.9611
29.0463
29.1307
29.2143
29.2971
29.3791
29.4603
29.5408
29.6204
29.6992
29.7772
29.8544
29.9308
30.0064
30.0811
30.155
30.2281
30.3004
30.3718
30.4424
30.5121
30.581
30.6491
30.7163
30.7827
30.8482
30.9128
30.9766
31.0396
31.1017
31.1629
31.2232
31.2827
31.3414
31.3991
31.456
31.512
31.5672
31.6214
31.6748
31.7273
31.7789
31.8297
31.8796
31.9285
31.9766
32.0238
32.0702
32.1156
32.1601
32.2038
32.2466
32.2884
32.3294
32.3695
32.4086
32.4469
32.4843
32.5208
32.5564
32.591
32.6248
32.6577
32.6897
32.7207
32.7509
32.7802
32.8085
32.8359
32.8625
32.8881
32.9128
32.9366
32.9595
32.9815
33.0026
33.0227
33.042
33.0603
33.0777
33.0942
33.1098
33.1245
33.1382
33.1511
33.163
33.174
33.1841
33.1933
33.2015
33.2089
33.2153
33.2208
33.2254
33.2291
33.2318
33.2337
33.2346
28.109
28.0948
28.0668
28.0253
27.9711
27.9048
27.8273
27.7394
27.6418
27.5354
27.4207
27.2985
27.1693
27.0337
26.8922
26.7452
26.5932
26.4366
26.2758
26.1112
25.9431
25.772
25.598
25.4215
25.2429
25.0623
24.8801
24.6965
24.5119
24.3264
24.1402
23.9537
23.767
23.5804
23.3941
23.2082
23.023
22.8387
22.6554
22.4734
22.2927
22.1136
21.9363
21.7608
21.5873
21.416
21.247
21.0805
20.9164
20.7551
20.5965
20.4409
20.2882
20.1386
19.9922
19.849
19.7093
19.5729
19.44
19.3107
19.185
19.063
18.9447
18.8301
18.7194
18.6126
18.5096
18.4106
18.3155
18.2244
18.1372
18.0541
17.9749
17.8998
17.8287
17.7616
17.6985
17.6394
17.5843
17.5332
17.4861
17.4429
17.4036
17.3682
17.3367
17.309
17.2851
17.265
17.2486
17.2359
17.2268
17.2214
17.2196
17.2212
17.2264
17.2349
17.2469
17.2622
17.2807
17.3025
17.3274
17.3554
17.3865
17.4206
17.4576
17.4975
17.5403
17.5858
17.634
17.6848
17.7382
17.7942
17.8526
17.9134
17.9766
18.042
18.1097
18.1795
18.2515
18.3254
18.4014
18.4793
18.5591
18.6406
18.724
18.809
18.8956
18.9839
19.0736
19.1649
19.2575
19.3516
19.4469
19.5435
19.6413
19.7403
19.8404
19.9415
20.0437
20.1468
20.2508
20.3557
20.4614
20.5679
20.6752
20.7831
20.8917
21.0009
21.1106
21.2209
21.3317
21.4429
21.5546
21.6666
21.779
21.8917
22.0046
22.1178
22.2312
22.3448
22.4585
22.5724
22.6863
22.8003
22.9143
23.0283
23.1423
23.2562
23.37
23.4838
23.5974
23.7108
23.8241
23.9372
24.0501
24.1627
24.2751
24.3871
24.4989
24.6104
24.7215
24.8323
24.9427
25.0527
25.1623
25.2714
25.3802
25.4884
25.5963
25.7036
25.8104
25.9167
26.0226
26.1278
26.2326
26.3367
26.4403
26.5433
26.6458
26.7476
26.8488
26.9494
27.0493
27.1487
27.2473
27.3453
27.4427
27.5394
27.6354
27.7307
27.8253
27.9192
28.0124
28.1049
28.1966
28.2877
28.3779
28.4675
28.5563
28.6444
28.7317
28.8182
28.904
28.989
29.0732
29.1566
29.2393
29.3212
29.4022
29.4825
29.562
29.6407
29.7185
29.7956
29.8718
29.9472
30.0218
30.0956
30.1686
30.2407
30.312
30.3824
30.452
30.5208
30.5887
30.6558
30.722
30.7874
30.852
30.9156
30.9785
31.0404
31.1015
31.1618
31.2212
31.2797
31.3373
31.3941
31.45
31.505
31.5592
31.6125
31.6649
31.7164
31.7671
31.8168
31.8657
31.9137
31.9608
32.0071
32.0524
32.0969
32.1404
32.1831
32.2249
32.2658
32.3058
32.3449
32.3831
32.4204
32.4568
32.4923
32.5269
32.5607
32.5935
32.6254
32.6564
32.6865
32.7157
32.744
32.7714
32.7979
32.8234
32.8481
32.8718
32.8947
32.9166
32.9377
32.9578
32.977
32.9953
33.0127
33.0291
33.0447
33.0593
33.0731
33.0859
33.0978
33.1088
33.1188
33.128
33.1363
33.1436
33.15
33.1555
33.1601
33.1637
33.1665
33.1683
33.1692
28.0874
28.0735
28.0456
28.0045
27.9505
27.8846
27.8074
27.7198
27.6225
27.5163
27.4018
27.2797
27.1506
27.015
26.8735
26.7264
26.5744
26.4178
26.257
26.0924
25.9243
25.7531
25.5791
25.4027
25.224
25.0434
24.8613
24.6777
24.4931
24.3076
24.1215
23.9351
23.7484
23.5619
23.3756
23.1898
23.0047
22.8204
22.6372
22.4552
22.2747
22.0956
21.9184
21.743
21.5696
21.3984
21.2294
21.063
20.899
20.7378
20.5793
20.4237
20.2711
20.1216
19.9753
19.8322
19.6925
19.5562
19.4235
19.2942
19.1686
19.0467
18.9285
18.8141
18.7034
18.5967
18.4938
18.3949
18.2999
18.2088
18.1218
18.0387
17.9597
17.8847
17.8136
17.7466
17.6836
17.6247
17.5697
17.5186
17.4716
17.4284
17.3892
17.3539
17.3225
17.2949
17.2711
17.2511
17.2348
17.2222
17.2132
17.2079
17.2061
17.2079
17.2131
17.2217
17.2338
17.2491
17.2677
17.2896
17.3146
17.3427
17.3739
17.408
17.4451
17.4851
17.5279
17.5735
17.6217
17.6727
17.7262
17.7822
17.8407
17.9015
17.9648
18.0303
18.098
18.1679
18.2399
18.3139
18.3899
18.4679
18.5477
18.6293
18.7127
18.7978
18.8845
18.9728
19.0626
19.1539
19.2466
19.3406
19.436
19.5327
19.6305
19.7295
19.8296
19.9308
20.033
20.1361
20.2402
20.3451
20.4509
20.5574
20.6647
20.7726
20.8812
20.9905
21.1002
21.2106
21.3214
21.4326
21.5443
21.6563
21.7687
21.8814
21.9944
22.1076
22.221
22.3346
22.4483
22.5622
22.6761
22.7901
22.9041
23.0181
23.1321
23.246
23.3599
23.4736
23.5872
23.7007
23.814
23.927
24.0399
24.1525
24.2649
24.377
24.4887
24.6002
24.7113
24.8221
24.9325
25.0425
25.152
25.2612
25.3699
25.4782
25.586
25.6933
25.8002
25.9065
26.0123
26.1175
26.2222
26.3264
26.43
26.533
26.6354
26.7372
26.8384
26.939
27.0389
27.1382
27.2369
27.3349
27.4322
27.5289
27.6248
27.7201
27.8147
27.9086
28.0018
28.0943
28.186
28.277
28.3673
28.4568
28.5456
28.6337
28.7209
28.8075
28.8932
28.9782
29.0624
29.1458
29.2285
29.3103
29.3914
29.4716
29.5511
29.6297
29.7076
29.7846
29.8608
29.9362
30.0108
30.0846
30.1575
30.2296
30.3008
30.3713
30.4409
30.5096
30.5775
30.6446
30.7108
30.7762
30.8407
30.9044
30.9672
31.0291
31.0902
31.1504
31.2098
31.2683
31.3259
31.3827
31.4386
31.4936
31.5477
31.601
31.6534
31.7049
31.7555
31.8053
31.8542
31.9022
31.9493
31.9955
32.0408
32.0853
32.1288
32.1715
32.2132
32.2541
32.2941
32.3332
32.3714
32.4087
32.4451
32.4806
32.5152
32.5489
32.5817
32.6136
32.6446
32.6747
32.7039
32.7322
32.7595
32.786
32.8116
32.8362
32.86
32.8828
32.9047
32.9258
32.9459
32.9651
32.9834
33.0007
33.0172
33.0328
33.0474
33.0611
33.0739
33.0858
33.0968
33.1069
33.116
33.1243
33.1316
33.138
33.1435
33.1481
33.1518
33.1545
33.1563
33.1573
28.0498
28.0354
28.0066
27.9643
27.9088
27.8412
27.7623
27.6729
27.5739
27.4661
27.3502
27.2269
27.0967
26.9603
26.818
26.6705
26.5181
26.3612
26.2002
26.0355
25.8674
25.6962
25.5223
25.346
25.1675
24.9871
24.8051
24.6218
24.4374
24.2522
24.0664
23.8802
23.6939
23.5076
23.3216
23.1361
22.9513
22.7674
22.5845
22.4028
22.2225
22.0439
21.8669
21.6918
21.5187
21.3478
21.1792
21.0131
20.8494
20.6885
20.5303
20.375
20.2228
20.0736
19.9275
19.7848
19.6454
19.5094
19.3769
19.2479
19.1226
19.0009
18.883
18.7688
18.6585
18.552
18.4494
18.3507
18.2559
18.1651
18.0783
17.9955
17.9167
17.8418
17.771
17.7043
17.6415
17.5827
17.5279
17.477
17.4302
17.3872
17.3482
17.3131
17.2818
17.2544
17.2307
17.2109
17.1947
17.1822
17.1734
17.1682
17.1666
17.1685
17.1738
17.1826
17.1947
17.2102
17.2289
17.2508
17.2759
17.3041
17.3354
17.3696
17.4068
17.4468
17.4897
17.5353
17.5836
17.6346
17.6881
17.7442
17.8027
17.8636
17.9268
17.9924
18.0601
18.13
18.202
18.2761
18.3521
18.43
18.5098
18.5914
18.6748
18.7598
18.8465
18.9348
19.0246
19.1158
19.2085
19.3025
19.3979
19.4945
19.5923
19.6912
19.7913
19.8924
19.9945
20.0976
20.2016
20.3064
20.4121
20.5185
20.6257
20.7336
20.8421
20.9513
21.061
21.1712
21.2819
21.3931
21.5046
21.6166
21.7289
21.8415
21.9543
22.0674
22.1807
22.2942
22.4078
22.5216
22.6354
22.7492
22.8631
22.977
23.0909
23.2047
23.3184
23.432
23.5455
23.6589
23.772
23.885
23.9977
24.1102
24.2224
24.3344
24.446
24.5574
24.6683
24.779
24.8892
24.9991
25.1085
25.2176
25.3262
25.4343
25.542
25.6492
25.7559
25.862
25.9677
26.0728
26.1774
26.2814
26.3849
26.4877
26.59
26.6917
26.7928
26.8932
26.993
27.0922
27.1907
27.2886
27.3858
27.4823
27.5781
27.6733
27.7678
27.8615
27.9546
28.0469
28.1385
28.2294
28.3196
28.409
28.4976
28.5855
28.6727
28.7591
28.8447
28.9296
29.0137
29.097
29.1795
29.2612
29.3422
29.4223
29.5017
29.5802
29.6579
29.7348
29.8109
29.8862
29.9607
30.0344
30.1072
30.1792
30.2503
30.3207
30.3901
30.4588
30.5266
30.5936
30.6597
30.7249
30.7894
30.8529
30.9156
30.9775
31.0385
31.0986
31.1579
31.2163
31.2738
31.3305
31.3863
31.4413
31.4953
31.5485
31.6008
31.6523
31.7028
31.7525
31.8013
31.8492
31.8962
31.9424
31.9876
32.032
32.0755
32.1181
32.1598
32.2006
32.2405
32.2796
32.3177
32.3549
32.3913
32.4267
32.4613
32.4949
32.5277
32.5595
32.5905
32.6205
32.6497
32.6779
32.7052
32.7317
32.7572
32.7818
32.8055
32.8283
32.8502
32.8712
32.8913
32.9105
32.9287
32.9461
32.9625
32.978
32.9927
33.0064
33.0191
33.031
33.042
33.0521
33.0612
33.0694
33.0767
33.0831
33.0886
33.0932
33.0969
33.0996
33.1014
33.1023
28.0093
27.9951
27.9668
27.9251
27.8703
27.8035
27.7252
27.6366
27.5382
27.4309
27.3154
27.1924
27.0624
26.9261
26.7839
26.6364
26.484
26.3271
26.1661
26.0013
25.8332
25.662
25.488
25.3117
25.1332
24.9528
24.7709
24.5876
24.4033
24.2181
24.0323
23.8462
23.66
23.4738
23.2879
23.1025
22.9178
22.734
22.5512
22.3697
22.1895
22.011
21.8341
21.6592
21.4863
21.3155
21.147
20.981
20.8175
20.6567
20.4987
20.3436
20.1915
20.0424
19.8966
19.754
19.6147
19.4789
19.3465
19.2177
19.0926
18.9711
18.8533
18.7393
18.6291
18.5228
18.4204
18.3218
18.2273
18.1366
18.05
17.9674
17.8887
17.8141
17.7434
17.6768
17.6142
17.5556
17.501
17.4503
17.4036
17.3609
17.322
17.2871
17.256
17.2287
17.2052
17.1855
17.1696
17.1573
17.1486
17.1436
17.1421
17.1442
17.1497
17.1586
17.1709
17.1865
17.2054
17.2275
17.2528
17.2811
17.3125
17.3469
17.3842
17.4244
17.4675
17.5132
17.5617
17.6128
17.6665
17.7227
17.7813
17.8424
17.9058
17.9714
18.0393
18.1093
18.1815
18.2556
18.3318
18.4098
18.4898
18.5715
18.655
18.7401
18.8269
18.9153
19.0052
19.0965
19.1893
19.2834
19.3789
19.4755
19.5734
19.6725
19.7726
19.8738
19.976
20.0792
20.1832
20.2882
20.3939
20.5004
20.6077
20.7156
20.8242
20.9334
21.0432
21.1535
21.2642
21.3754
21.4871
21.5991
21.7114
21.824
21.9369
22.0501
22.1634
22.2769
22.3906
22.5044
22.6182
22.7321
22.846
22.96
23.0738
23.1877
23.3014
23.4151
23.5286
23.6419
23.7551
23.8681
23.9808
24.0933
24.2056
24.3175
24.4292
24.5405
24.6515
24.7621
24.8724
24.9822
25.0917
25.2007
25.3093
25.4174
25.5251
25.6323
25.739
25.8452
25.9508
26.0559
26.1605
26.2645
26.3679
26.4708
26.5731
26.6747
26.7758
26.8762
26.976
27.0751
27.1737
27.2715
27.3687
27.4652
27.561
27.6562
27.7506
27.8443
27.9374
28.0297
28.1213
28.2121
28.3023
28.3917
28.4803
28.5682
28.6553
28.7417
28.8273
28.9121
28.9962
29.0795
29.162
29.2437
29.3246
29.4047
29.484
29.5625
29.6402
29.7171
29.7932
29.8685
29.9429
30.0165
30.0893
30.1613
30.2324
30.3027
30.3722
30.4408
30.5086
30.5755
30.6416
30.7068
30.7712
30.8348
30.8975
30.9593
31.0203
31.0804
31.1396
31.198
31.2555
31.3122
31.3679
31.4228
31.4769
31.53
31.5823
31.6337
31.6843
31.7339
31.7827
31.8306
31.8776
31.9237
31.969
32.0133
32.0568
32.0994
32.1411
32.1818
32.2217
32.2608
32.2989
32.3361
32.3724
32.4078
32.4424
32.476
32.5087
32.5406
32.5715
32.6015
32.6307
32.6589
32.6862
32.7126
32.7381
32.7627
32.7864
32.8092
32.8311
32.8521
32.8722
32.8913
32.9096
32.9269
32.9434
32.9589
32.9735
32.9872
33
33.0118
33.0228
33.0328
33.042
33.0502
33.0575
33.0639
33.0694
33.074
33.0776
33.0804
33.0822
33.0831
27.9546
27.9404
27.9119
27.87
27.8149
27.7478
27.6691
27.58
27.4811
27.3733
27.2572
27.1337
27.0033
26.8665
26.7239
26.5761
26.4234
26.2662
26.105
25.9402
25.772
25.6007
25.4268
25.2505
25.0721
24.8919
24.7101
24.527
24.3428
24.1578
23.9723
23.7864
23.6004
23.4144
23.2288
23.0437
22.8592
22.6757
22.4932
22.3119
22.1321
21.9538
21.7773
21.6026
21.43
21.2595
21.0914
20.9257
20.7625
20.602
20.4443
20.2895
20.1376
19.9889
19.8433
19.7011
19.5621
19.4266
19.2945
19.166
19.0412
18.92
18.8025
18.6888
18.5789
18.4729
18.3707
18.2725
18.1782
18.0879
18.0015
17.9191
17.8408
17.7664
17.696
17.6297
17.5673
17.509
17.4546
17.4042
17.3578
17.3153
17.2767
17.2419
17.2111
17.1841
17.1608
17.1414
17.1256
17.1135
17.1051
17.1003
17.099
17.1013
17.107
17.1161
17.1286
17.1445
17.1635
17.1858
17.2113
17.2398
17.2714
17.3059
17.3434
17.3838
17.4269
17.4729
17.5215
17.5727
17.6266
17.6829
17.7417
17.8028
17.8664
17.9321
18.0001
18.0703
18.1425
18.2168
18.293
18.3712
18.4512
18.533
18.6166
18.7018
18.7887
18.8771
18.9671
19.0585
19.1513
19.2455
19.341
19.4377
19.5356
19.6347
19.7349
19.8361
19.9384
20.0415
20.1456
20.2506
20.3563
20.4629
20.5701
20.6781
20.7867
20.8959
21.0056
21.1159
21.2267
21.3379
21.4495
21.5614
21.6738
21.7864
21.8993
22.0124
22.1257
22.2392
22.3528
22.4665
22.5803
22.6942
22.8081
22.9219
23.0358
23.1495
23.2632
23.3768
23.4903
23.6036
23.7167
23.8296
23.9423
24.0547
24.1669
24.2788
24.3904
24.5016
24.6125
24.7231
24.8333
24.9431
25.0524
25.1614
25.2699
25.378
25.4855
25.5926
25.6992
25.8053
25.9109
26.0159
26.1204
26.2243
26.3277
26.4305
26.5326
26.6342
26.7352
26.8355
26.9352
27.0343
27.1327
27.2305
27.3275
27.424
27.5197
27.6147
27.7091
27.8027
27.8957
27.9879
28.0794
28.1702
28.2602
28.3495
28.438
28.5258
28.6129
28.6992
28.7847
28.8694
28.9534
29.0366
29.119
29.2006
29.2814
29.3615
29.4407
29.5191
29.5967
29.6735
29.7495
29.8247
29.8991
29.9726
30.0453
30.1172
30.1882
30.2584
30.3278
30.3964
30.4641
30.5309
30.5969
30.6621
30.7264
30.7899
30.8525
30.9142
30.9751
31.0352
31.0943
31.1527
31.2101
31.2667
31.3224
31.3772
31.4312
31.4843
31.5365
31.5879
31.6383
31.6879
31.7366
31.7845
31.8314
31.8775
31.9227
31.967
32.0104
32.0529
32.0945
32.1353
32.1751
32.2141
32.2522
32.2893
32.3256
32.361
32.3955
32.4291
32.4618
32.4935
32.5244
32.5544
32.5835
32.6117
32.639
32.6654
32.6908
32.7154
32.7391
32.7619
32.7837
32.8047
32.8247
32.8438
32.8621
32.8794
32.8958
32.9113
32.9259
32.9396
32.9523
32.9642
32.9751
32.9852
32.9943
33.0025
33.0098
33.0162
33.0217
33.0262
33.0299
33.0326
33.0344
33.0354
27.8975
27.8836
27.8557
27.8145
27.7604
27.6942
27.6165
27.5283
27.4303
27.3233
27.2078
27.0848
26.9548
26.8183
26.6759
26.5282
26.3755
26.2184
26.0572
25.8923
25.7241
25.5528
25.3789
25.2026
25.0242
24.844
24.6622
24.4791
24.295
24.1101
23.9247
23.7389
23.553
23.3671
23.1816
22.9966
22.8123
22.6289
22.4466
22.2655
22.0858
21.9077
21.7314
21.5569
21.3845
21.2142
21.0462
20.8807
20.7177
20.5574
20.3999
20.2453
20.0937
19.9452
19.7998
19.6578
19.519
19.3837
19.2519
19.1236
18.999
18.878
18.7608
18.6473
18.5377
18.4319
18.33
18.232
18.1379
18.0479
17.9617
17.8796
17.8015
17.7274
17.6573
17.5912
17.5291
17.471
17.4169
17.3668
17.3206
17.2783
17.24
17.2055
17.1749
17.1481
17.1252
17.1059
17.0905
17.0786
17.0705
17.0659
17.0649
17.0674
17.0734
17.0828
17.0955
17.1116
17.1309
17.1534
17.1791
17.2079
17.2397
17.2745
17.3122
17.3528
17.3962
17.4424
17.4912
17.5427
17.5968
17.6533
17.7123
17.7737
17.8374
17.9034
17.9716
18.042
18.1144
18.1889
18.2653
18.3437
18.4239
18.5059
18.5896
18.675
18.7621
18.8507
18.9408
19.0324
19.1254
19.2197
19.3154
19.4123
19.5103
19.6096
19.7099
19.8113
19.9136
20.017
20.1212
20.2262
20.3321
20.4388
20.5462
20.6542
20.7629
20.8722
20.9821
21.0925
21.2033
21.3146
21.4263
21.5384
21.6508
21.7635
21.8765
21.9897
22.1031
22.2166
22.3303
22.4441
22.558
22.6719
22.7858
22.8998
23.0137
23.1275
23.2412
23.3549
23.4684
23.5817
23.6948
23.8078
23.9205
24.033
24.1452
24.2571
24.3687
24.48
24.591
24.7015
24.8117
24.9215
25.0309
25.1399
25.2484
25.3565
25.4641
25.5712
25.6778
25.7839
25.8895
25.9945
26.099
26.2029
26.3063
26.409
26.5112
26.6128
26.7137
26.814
26.9137
27.0128
27.1112
27.209
27.306
27.4024
27.4982
27.5932
27.6875
27.7811
27.8741
27.9663
28.0577
28.1485
28.2385
28.3278
28.4163
28.5041
28.5911
28.6774
28.7629
28.8476
28.9315
29.0147
29.0971
29.1786
29.2594
29.3394
29.4186
29.497
29.5746
29.6514
29.7274
29.8025
29.8768
29.9503
30.023
30.0949
30.1659
30.2361
30.3054
30.374
30.4416
30.5084
30.5744
30.6396
30.7039
30.7673
30.8299
30.8916
30.9525
31.0125
31.0716
31.1299
31.1873
31.2439
31.2995
31.3543
31.4083
31.4614
31.5136
31.5649
31.6153
31.6649
31.7136
31.7614
31.8083
31.8543
31.8995
31.9438
31.9871
32.0296
32.0713
32.112
32.1518
32.1907
32.2288
32.2659
32.3022
32.3376
32.372
32.4056
32.4383
32.47
32.5009
32.5309
32.5599
32.5881
32.6154
32.6418
32.6672
32.6918
32.7154
32.7382
32.76
32.781
32.801
32.8201
32.8383
32.8556
32.872
32.8875
32.9021
32.9158
32.9285
32.9404
32.9513
32.9613
32.9705
32.9787
32.986
32.9923
32.9978
33.0024
33.006
33.0088
33.0106
33.0115
27.8283
27.8145
27.7868
27.7459
27.6922
27.6263
27.549
27.4611
27.3633
27.2564
27.1411
27.0181
26.888
26.7514
26.609
26.4611
26.3084
26.1511
25.9898
25.8249
25.6566
25.4853
25.3114
25.1351
24.9567
24.7766
24.5949
24.412
24.228
24.0433
23.858
23.6724
23.4867
23.3011
23.1158
22.9311
22.747
22.5639
22.3818
22.201
22.0216
21.8438
21.6677
21.4935
21.3214
21.1514
20.9837
20.8185
20.6559
20.4959
20.3387
20.1844
20.0331
19.8849
19.7399
19.5981
19.4597
19.3247
19.1932
19.0653
18.941
18.8204
18.7035
18.5903
18.481
18.3755
18.274
18.1763
18.0826
17.9928
17.907
17.8252
17.7475
17.6737
17.6039
17.5381
17.4764
17.4186
17.3648
17.315
17.2691
17.2272
17.1892
17.155
17.1247
17.0983
17.0756
17.0567
17.0415
17.03
17.0221
17.0179
17.0172
17.02
17.0262
17.0359
17.0489
17.0653
17.0849
17.1077
17.1336
17.1627
17.1948
17.2298
17.2678
17.3087
17.3523
17.3987
17.4478
17.4995
17.5538
17.6106
17.6698
17.7315
17.7954
17.8616
17.93
18.0006
18.0732
18.1479
18.2245
18.303
18.3834
18.4656
18.5495
18.6351
18.7223
18.8111
18.9014
18.9931
19.0863
19.1808
19.2765
19.3736
19.4718
19.5711
19.6716
19.7731
19.8756
19.979
20.0833
20.1885
20.2945
20.4012
20.5087
20.6169
20.7256
20.835
20.9449
21.0554
21.1663
21.2777
21.3894
21.5016
21.614
21.7268
21.8398
21.953
22.0664
22.18
22.2938
22.4076
22.5215
22.6354
22.7494
22.8633
22.9772
23.0911
23.2048
23.3185
23.432
23.5453
23.6584
23.7714
23.8841
23.9966
24.1088
24.2207
24.3323
24.4435
24.5544
24.665
24.7752
24.885
24.9943
25.1033
25.2118
25.3198
25.4273
25.5344
25.641
25.747
25.8526
25.9576
26.062
26.1659
26.2692
26.3719
26.474
26.5755
26.6764
26.7767
26.8764
26.9754
27.0737
27.1714
27.2684
27.3648
27.4604
27.5554
27.6497
27.7432
27.8361
27.9282
28.0197
28.1103
28.2003
28.2895
28.378
28.4657
28.5526
28.6388
28.7242
28.8089
28.8928
28.9759
29.0582
29.1397
29.2204
29.3004
29.3795
29.4578
29.5353
29.6121
29.688
29.763
29.8373
29.9107
29.9834
30.0551
30.1261
30.1962
30.2655
30.334
30.4016
30.4683
30.5343
30.5993
30.6636
30.7269
30.7894
30.8511
30.9119
30.9719
31.0309
31.0892
31.1465
31.203
31.2586
31.3134
31.3673
31.4203
31.4724
31.5237
31.5741
31.6236
31.6722
31.72
31.7669
31.8129
31.858
31.9022
31.9455
31.988
32.0296
32.0702
32.11
32.1489
32.1869
32.224
32.2602
32.2956
32.33
32.3635
32.3962
32.4279
32.4587
32.4887
32.5177
32.5458
32.5731
32.5994
32.6249
32.6494
32.673
32.6957
32.7176
32.7385
32.7585
32.7776
32.7958
32.8131
32.8294
32.8449
32.8595
32.8731
32.8859
32.8977
32.9086
32.9186
32.9278
32.936
32.9432
32.9496
32.9551
32.9596
32.9633
32.966
32.9678
32.9688
27.7563
27.7428
27.7157
27.6756
27.6228
27.5581
27.4819
27.3951
27.2984
27.1924
27.0779
26.9556
26.8261
26.69
26.5478
26.4002
26.2476
26.0905
25.9293
25.7644
25.5961
25.4248
25.2509
25.0747
24.8963
24.7162
24.5346
24.3517
24.1678
23.9832
23.798
23.6125
23.4269
23.2415
23.0563
22.8717
22.6879
22.5049
22.323
22.1424
21.9632
21.7856
21.6097
21.4357
21.2638
21.0941
20.9266
20.7617
20.5993
20.4395
20.2826
20.1285
19.9775
19.8296
19.6848
19.5433
19.4052
19.2705
19.1393
19.0117
18.8876
18.7673
18.6507
18.5379
18.4289
18.3237
18.2224
18.1251
18.0317
17.9422
17.8568
17.7753
17.6978
17.6244
17.5549
17.4895
17.428
17.3706
17.3171
17.2677
17.2221
17.1805
17.1429
17.1091
17.0791
17.053
17.0307
17.0121
16.9973
16.9861
16.9786
16.9747
16.9743
16.9774
16.984
16.994
17.0074
17.0241
17.044
17.0672
17.0934
17.1228
17.1552
17.1906
17.2289
17.2701
17.3141
17.3608
17.4102
17.4622
17.5168
17.5739
17.6334
17.6953
17.7596
17.8261
17.8948
17.9656
18.0385
18.1135
18.1904
18.2692
18.3498
18.4323
18.5165
18.6023
18.6898
18.7788
18.8693
18.9613
19.0547
19.1494
19.2454
19.3426
19.4411
19.5406
19.6413
19.743
19.8457
19.9493
20.0538
20.1592
20.2653
20.3723
20.4799
20.5882
20.6972
20.8067
20.9168
21.0274
21.1385
21.25
21.3619
21.4742
21.5867
21.6996
21.8128
21.9261
22.0397
22.1534
22.2672
22.3811
22.4952
22.6092
22.7232
22.8373
22.9513
23.0652
23.179
23.2928
23.4063
23.5197
23.633
23.746
23.8588
23.9713
24.0835
24.1955
24.3072
24.4185
24.5294
24.64
24.7503
24.8601
24.9695
25.0785
25.187
25.2951
25.4026
25.5097
25.6163
25.7224
25.828
25.933
26.0374
26.1413
26.2446
26.3474
26.4495
26.551
26.6519
26.7522
26.8519
26.9509
27.0492
27.1469
27.2439
27.3403
27.4359
27.5309
27.6251
27.7187
27.8116
27.9037
27.9951
28.0858
28.1757
28.2649
28.3533
28.441
28.528
28.6141
28.6996
28.7842
28.868
28.9511
29.0334
29.1149
29.1956
29.2755
29.3546
29.4329
29.5104
29.5871
29.663
29.738
29.8123
29.8857
29.9583
30.03
30.101
30.1711
30.2403
30.3087
30.3763
30.4431
30.5089
30.574
30.6382
30.7015
30.764
30.8256
30.8864
30.9463
31.0054
31.0636
31.1209
31.1774
31.233
31.2877
31.3416
31.3946
31.4467
31.4979
31.5483
31.5978
31.6464
31.6941
31.7409
31.7869
31.832
31.8762
31.9195
31.9619
32.0035
32.0441
32.0839
32.1227
32.1607
32.1978
32.234
32.2693
32.3037
32.3372
32.3698
32.4015
32.4324
32.4623
32.4913
32.5194
32.5466
32.573
32.5984
32.6229
32.6465
32.6692
32.691
32.7119
32.7319
32.751
32.7692
32.7865
32.8028
32.8183
32.8328
32.8465
32.8592
32.871
32.882
32.892
32.9011
32.9093
32.9166
32.9229
32.9284
32.9329
32.9366
32.9393
32.9411
32.942
27.6737
27.6604
27.6337
27.5942
27.5421
27.4781
27.4027
27.3166
27.2205
27.1152
27.0012
26.8793
26.7501
26.6142
26.4723
26.3248
26.1723
26.0152
25.854
25.6891
25.5208
25.3496
25.1757
24.9994
24.8212
24.6411
24.4596
24.2768
24.0931
23.9086
23.7235
23.5382
23.3528
23.1676
22.9827
22.7983
22.6147
22.432
22.2503
22.07
21.8911
21.7137
21.5382
21.3645
21.1929
21.0235
20.8563
20.6917
20.5296
20.3702
20.2136
20.0599
19.9092
19.7616
19.6172
19.4761
19.3383
19.2039
19.0731
18.9458
18.8222
18.7022
18.5859
18.4735
18.3648
18.2601
18.1592
18.0622
17.9692
17.8801
17.795
17.7139
17.6369
17.5638
17.4947
17.4297
17.3686
17.3116
17.2585
17.2094
17.1643
17.1231
17.0858
17.0524
17.0228
16.9971
16.9752
16.957
16.9426
16.9318
16.9246
16.9211
16.9211
16.9246
16.9316
16.942
16.9557
16.9728
16.9931
17.0166
17.0433
17.073
17.1058
17.1415
17.1802
17.2217
17.266
17.3131
17.3628
17.4152
17.4701
17.5275
17.5873
17.6496
17.7141
17.7809
17.8499
17.9211
17.9943
18.0695
18.1467
18.2258
18.3067
18.3894
18.4739
18.56
18.6477
18.737
18.8278
18.92
19.0136
19.1085
19.2048
19.3022
19.4009
19.5007
19.6015
19.7034
19.8063
19.9101
20.0148
20.1204
20.2267
20.3338
20.4416
20.5501
20.6592
20.7689
20.8791
20.9899
21.1011
21.2127
21.3248
21.4372
21.5499
21.6629
21.7761
21.8896
22.0032
22.117
22.231
22.345
22.4591
22.5732
22.6873
22.8015
22.9155
23.0295
23.1434
23.2572
23.3708
23.4843
23.5976
23.7106
23.8234
23.936
24.0483
24.1603
24.272
24.3833
24.4943
24.6049
24.7152
24.825
24.9344
25.0434
25.152
25.26
25.3676
25.4747
25.5813
25.6874
25.7929
25.8979
26.0024
26.1063
26.2096
26.3123
26.4144
26.5159
26.6168
26.7171
26.8167
26.9157
27.014
27.1117
27.2086
27.305
27.4006
27.4955
27.5898
27.6833
27.7761
27.8682
27.9596
28.0502
28.1401
28.2292
28.3176
28.4053
28.4922
28.5783
28.6637
28.7483
28.8321
28.9151
28.9974
29.0788
29.1595
29.2393
29.3184
29.3966
29.4741
29.5507
29.6266
29.7016
29.7758
29.8491
29.9217
29.9934
30.0642
30.1343
30.2035
30.2719
30.3394
30.4061
30.4719
30.5369
30.6011
30.6644
30.7268
30.7884
30.8491
30.909
30.968
31.0261
31.0834
31.1398
31.1954
31.2501
31.3039
31.3568
31.4089
31.4601
31.5104
31.5598
31.6084
31.6561
31.7029
31.7488
31.7939
31.838
31.8813
31.9237
31.9652
32.0058
32.0455
32.0843
32.1223
32.1593
32.1955
32.2308
32.2651
32.2986
32.3312
32.3629
32.3937
32.4236
32.4526
32.4807
32.5078
32.5341
32.5595
32.584
32.6076
32.6303
32.6521
32.673
32.6929
32.712
32.7302
32.7474
32.7638
32.7792
32.7938
32.8074
32.8201
32.8319
32.8428
32.8528
32.8619
32.8701
32.8774
32.8837
32.8892
32.8938
32.8974
32.9001
32.9019
32.9029
27.5876
27.5746
27.5485
27.5098
27.4587
27.3958
27.3216
27.2368
27.1418
27.0376
26.9246
26.8035
26.6751
26.5398
26.3984
26.2513
26.0991
25.9423
25.7812
25.6164
25.4483
25.2771
25.1033
24.9271
24.7489
24.5689
24.3874
24.2048
24.0211
23.8367
23.6518
23.4666
23.2814
23.0963
22.9116
22.7274
22.5439
22.3614
22.18
21.9999
21.8212
21.6441
21.4688
21.2953
21.124
20.9548
20.788
20.6236
20.4618
20.3027
20.1464
19.993
19.8426
19.6953
19.5512
19.4104
19.273
19.139
19.0085
18.8815
18.7582
18.6386
18.5227
18.4106
18.3023
18.1979
18.0974
18.0008
17.9082
17.8195
17.7348
17.6541
17.5774
17.5048
17.4361
17.3715
17.3108
17.2542
17.2015
17.1529
17.1081
17.0674
17.0305
16.9975
16.9684
16.9431
16.9216
16.9038
16.8898
16.8794
16.8727
16.8696
16.8701
16.874
16.8814
16.8922
16.9064
16.9239
16.9446
16.9685
16.9956
17.0257
17.0589
17.0951
17.1341
17.1761
17.2208
17.2682
17.3184
17.3711
17.4264
17.4843
17.5445
17.6071
17.672
17.7392
17.8086
17.8801
17.9537
18.0293
18.1068
18.1862
18.2675
18.3506
18.4353
18.5218
18.6098
18.6994
18.7905
18.883
18.9769
19.0722
19.1687
19.2665
19.3654
19.4655
19.5666
19.6688
19.7719
19.876
19.981
20.0868
20.1933
20.3007
20.4087
20.5174
20.6268
20.7367
20.8471
20.9581
21.0695
21.1813
21.2936
21.4062
21.519
21.6322
21.7456
21.8593
21.9731
22.0871
22.2012
22.3153
22.4296
22.5438
22.6581
22.7724
22.8866
23.0007
23.1147
23.2286
23.3423
23.4559
23.5693
23.6824
23.7954
23.908
24.0204
24.1325
24.2443
24.3557
24.4668
24.5775
24.6878
24.7977
24.9072
25.0162
25.1248
25.2329
25.3406
25.4477
25.5544
25.6605
25.7661
25.8711
25.9756
26.0795
26.1829
26.2856
26.3878
26.4893
26.5902
26.6905
26.7901
26.8891
26.9875
27.0851
27.1821
27.2785
27.3741
27.469
27.5633
27.6568
27.7496
27.8417
27.9331
28.0237
28.1136
28.2028
28.2912
28.3788
28.4657
28.5518
28.6372
28.7217
28.8055
28.8885
28.9708
29.0522
29.1329
29.2127
29.2917
29.37
29.4474
29.524
29.5998
29.6748
29.749
29.8223
29.8948
29.9665
30.0374
30.1074
30.1766
30.2449
30.3124
30.3791
30.4449
30.5099
30.574
30.6373
30.6997
30.7612
30.8219
30.8818
30.9407
30.9989
31.0561
31.1125
31.168
31.2227
31.2765
31.3294
31.3814
31.4326
31.4829
31.5323
31.5808
31.6285
31.6753
31.7212
31.7662
31.8103
31.8536
31.8959
31.9374
31.978
32.0177
32.0565
32.0944
32.1315
32.1676
32.2028
32.2372
32.2706
32.3032
32.3349
32.3656
32.3955
32.4245
32.4526
32.4797
32.506
32.5314
32.5559
32.5794
32.6021
32.6239
32.6447
32.6647
32.6837
32.7019
32.7191
32.7355
32.7509
32.7654
32.7791
32.7918
32.8036
32.8145
32.8245
32.8336
32.8417
32.849
32.8554
32.8608
32.8654
32.869
32.8717
32.8736
32.8745
27.4921
27.4793
27.4537
27.4157
27.3654
27.3034
27.2302
27.1463
27.0524
26.949
26.8368
26.7165
26.5887
26.454
26.3129
26.1662
26.0143
25.8576
25.6968
25.5321
25.3641
25.193
25.0192
24.8431
24.665
24.4851
24.3038
24.1212
23.9377
23.7534
23.5687
23.3837
23.1987
23.0138
22.8293
22.6453
22.4621
22.2798
22.0987
21.9188
21.7404
21.5636
21.3886
21.2155
21.0445
20.8756
20.7091
20.5451
20.3836
20.2249
20.0689
19.9159
19.7659
19.619
19.4752
19.3348
19.1978
19.0641
18.934
18.8075
18.6846
18.5654
18.4499
18.3382
18.2304
18.1264
18.0263
17.9302
17.838
17.7497
17.6655
17.5852
17.509
17.4368
17.3686
17.3044
17.2442
17.188
17.1358
17.0876
17.0434
17.0031
16.9667
16.9341
16.9055
16.8806
16.8596
16.8423
16.8288
16.8189
16.8127
16.81
16.8109
16.8153
16.8232
16.8345
16.8491
16.8671
16.8883
16.9126
16.9402
16.9708
17.0044
17.041
17.0805
17.1229
17.1681
17.2159
17.2665
17.3197
17.3754
17.4336
17.4943
17.5573
17.6227
17.6902
17.76
17.8319
17.9059
17.9818
18.0598
18.1396
18.2212
18.3046
18.3898
18.4765
18.5649
18.6549
18.7463
18.8391
18.9334
19.0289
19.1258
19.2238
19.3231
19.4234
19.5248
19.6273
19.7307
19.8351
19.9403
20.0463
20.1532
20.2608
20.3691
20.478
20.5876
20.6977
20.8084
20.9195
21.0311
21.1432
21.2556
21.3684
21.4815
21.5948
21.7084
21.8222
21.9362
22.0503
22.1646
22.2789
22.3933
22.5077
22.6221
22.7365
22.8508