/*--------------------------------*- C++ -*----------------------------------*\
| =========                 |                                                 |
| \\      /  F ield         | OpenFOAM: The Open Source CFD Toolbox           |
|  \\    /   O peration     | Version:  2212                                  |
|   \\  /    A nd           | Website:  www.openfoam.com                      |
|    \\/     M anipulation  |                                                 |
\*---------------------------------------------------------------------------*/
FoamFile
{
    version     2.0;
    format      ascii;
    arch        "LSB;label=32;scalar=64";
    class       volScalarField;
    location    "410";
    object      p_rgh_0;
}
// * * * * * * * * * * * * * * * * * * * * * * * * * * * * * * * * * * * * * //

dimensions      [1 -1 -2 0 0 0 0];

internalField   nonuniform List<scalar> 
204800
(
28.1185
28.1059
28.0801
28.042
27.9915
27.9294
27.856
27.772
27.678
27.5747
27.4626
27.3425
27.215
27.0806
26.94
26.7936
26.642
26.4857
26.325
26.1603
25.9922
25.8208
25.6466
25.4699
25.291
25.1101
24.9276
24.7437
24.5587
24.3729
24.1864
23.9995
23.8125
23.6255
23.4388
23.2526
23.0671
22.8824
22.6988
22.5164
22.3354
22.156
21.9783
21.8025
21.6287
21.4571
21.2878
21.1209
20.9566
20.7949
20.6361
20.4801
20.3272
20.1773
20.0306
19.8872
19.7472
19.6105
19.4774
19.3478
19.2219
19.0997
18.9812
18.8664
18.7555
18.6485
18.5453
18.4461
18.3509
18.2596
18.1723
18.089
18.0097
17.9345
17.8632
17.796
17.7328
17.6736
17.6184
17.5672
17.52
17.4767
17.4374
17.4019
17.3703
17.3426
17.3187
17.2985
17.2821
17.2694
17.2603
17.2549
17.2531
17.2547
17.2599
17.2685
17.2805
17.2958
17.3143
17.3362
17.3611
17.3892
17.4204
17.4545
17.4916
17.5316
17.5744
17.62
17.6683
17.7192
17.7728
17.8288
17.8874
17.9483
18.0116
18.0771
18.1449
18.2149
18.287
18.3611
18.4372
18.5152
18.5951
18.6769
18.7603
18.8455
18.9323
19.0207
19.1107
19.2021
19.2949
19.3891
19.4846
19.5814
19.6794
19.7786
19.8788
19.9802
20.0825
20.1858
20.29
20.3951
20.501
20.6077
20.7152
20.8233
20.9321
21.0415
21.1515
21.262
21.3729
21.4844
21.5962
21.7085
21.8211
21.934
22.0471
22.1605
22.2741
22.3879
22.5019
22.6159
22.73
22.8442
22.9584
23.0727
23.1868
23.301
23.415
23.529
23.6428
23.7565
23.87
23.9832
24.0963
24.2092
24.3217
24.434
24.546
24.6577
24.769
24.88
24.9905
25.1008
25.2105
25.3199
25.4289
25.5373
25.6453
25.7529
25.8599
25.9664
26.0724
26.1779
26.2828
26.3871
26.4909
26.5941
26.6967
26.7987
26.9001
27.0009
27.101
27.2005
27.2994
27.3976
27.4951
27.5919
27.6881
27.7836
27.8783
27.9724
28.0658
28.1584
28.2503
28.3415
28.432
28.5217
28.6106
28.6988
28.7863
28.873
28.9589
29.044
29.1284
29.212
29.2948
29.3768
29.458
29.5384
29.618
29.6968
29.7748
29.852
29.9283
30.0039
30.0786
30.1525
30.2255
30.2978
30.3692
30.4397
30.5094
30.5783
30.6463
30.7135
30.7799
30.8454
30.91
30.9738
31.0367
31.0987
31.1599
31.2203
31.2797
31.3383
31.3961
31.4529
31.5089
31.564
31.6183
31.6716
31.7241
31.7757
31.8264
31.8763
31.9252
31.9733
32.0205
32.0668
32.1122
32.1567
32.2003
32.2431
32.2849
32.3258
32.3659
32.405
32.4433
32.4807
32.5171
32.5527
32.5873
32.6211
32.6539
32.6859
32.7169
32.7471
32.7763
32.8046
32.8321
32.8586
32.8842
32.9089
32.9327
32.9555
32.9775
32.9986
33.0187
33.0379
33.0562
33.0736
33.0901
33.1057
33.1204
33.1341
33.147
33.1589
33.1699
33.18
33.1891
33.1974
33.2047
33.2111
33.2166
33.2212
33.2249
33.2276
33.2295
33.2304
28.1026
28.0885
28.0604
28.019
27.9647
27.8985
27.8209
27.733
27.6355
27.529
27.4144
27.2922
27.163
27.0273
26.8858
26.7388
26.5868
26.4302
26.2694
26.1048
25.9367
25.7656
25.5916
25.4151
25.2365
25.0559
24.8737
24.6901
24.5055
24.32
24.1338
23.9473
23.7607
23.5741
23.3877
23.2019
23.0167
22.8324
22.6491
22.4671
22.2865
22.1074
21.9301
21.7546
21.5812
21.4099
21.241
21.0744
20.9104
20.7491
20.5906
20.4349
20.2823
20.1327
19.9864
19.8433
19.7035
19.5672
19.4343
19.305
19.1794
19.0574
18.9391
18.8247
18.714
18.6072
18.5043
18.4053
18.3102
18.2192
18.1321
18.049
17.9699
17.8948
17.8237
17.7567
17.6936
17.6346
17.5796
17.5285
17.4814
17.4382
17.399
17.3636
17.3322
17.3045
17.2807
17.2606
17.2443
17.2316
17.2226
17.2173
17.2155
17.2172
17.2224
17.231
17.243
17.2583
17.2769
17.2987
17.3237
17.3517
17.3829
17.417
17.4541
17.494
17.5368
17.5823
17.6306
17.6814
17.7349
17.7909
17.8494
17.9102
17.9734
18.0389
18.1066
18.1765
18.2484
18.3225
18.3985
18.4764
18.5562
18.6378
18.7211
18.8062
18.8929
18.9811
19.0709
19.1622
19.2549
19.349
19.4443
19.541
19.6388
19.7378
19.8379
19.939
20.0412
20.1444
20.2484
20.3533
20.4591
20.5656
20.6729
20.7808
20.8894
20.9986
21.1084
21.2187
21.3295
21.4408
21.5524
21.6645
21.7769
21.8896
22.0025
22.1157
22.2292
22.3428
22.4565
22.5703
22.6843
22.7983
22.9123
23.0263
23.1403
23.2542
23.3681
23.4818
23.5954
23.7089
23.8222
23.9353
24.0481
24.1608
24.2731
24.3852
24.497
24.6085
24.7196
24.8304
24.9408
25.0508
25.1603
25.2695
25.3783
25.4865
25.5943
25.7017
25.8085
25.9148
26.0206
26.1259
26.2306
26.3348
26.4384
26.5414
26.6438
26.7456
26.8468
26.9474
27.0474
27.1467
27.2453
27.3433
27.4407
27.5373
27.6333
27.7286
27.8232
27.9171
28.0103
28.1028
28.1945
28.2855
28.3758
28.4653
28.5541
28.6422
28.7295
28.816
28.9017
28.9867
29.0709
29.1543
29.237
29.3188
29.3999
29.4801
29.5596
29.6382
29.7161
29.7931
29.8693
29.9447
30.0193
30.0931
30.166
30.2381
30.3093
30.3798
30.4493
30.5181
30.586
30.653
30.7193
30.7846
30.8491
30.9128
30.9756
31.0375
31.0986
31.1588
31.2182
31.2766
31.3343
31.391
31.4469
31.5019
31.556
31.6093
31.6617
31.7132
31.7638
31.8135
31.8624
31.9104
31.9575
32.0037
32.049
32.0934
32.137
32.1796
32.2214
32.2623
32.3022
32.3413
32.3795
32.4168
32.4532
32.4887
32.5232
32.5569
32.5897
32.6216
32.6526
32.6827
32.7119
32.7401
32.7675
32.794
32.8195
32.8442
32.8679
32.8907
32.9127
32.9337
32.9538
32.973
32.9912
33.0086
33.0251
33.0406
33.0553
33.069
33.0818
33.0937
33.1047
33.1147
33.1239
33.1321
33.1394
33.1458
33.1513
33.1559
33.1596
33.1623
33.1641
33.1651
28.081
28.0671
28.0392
27.9981
27.9442
27.8783
27.8011
27.7135
27.6162
27.51
27.3955
27.2734
27.1442
27.0086
26.8671
26.7201
26.568
26.4114
26.2506
26.086
25.9179
25.7467
25.5727
25.3962
25.2176
25.037
24.8549
24.6713
24.4867
24.3012
24.1151
23.9287
23.7421
23.5555
23.3693
23.1835
22.9984
22.8141
22.6309
22.449
22.2684
22.0894
21.9122
21.7368
21.5634
21.3923
21.2234
21.0569
20.893
20.7318
20.5733
20.4178
20.2652
20.1158
19.9695
19.8265
19.6868
19.5505
19.4178
19.2886
19.163
19.0411
18.923
18.8086
18.698
18.5913
18.4885
18.3896
18.2946
18.2036
18.1166
18.0336
17.9546
17.8796
17.8087
17.7417
17.6788
17.6198
17.5649
17.5139
17.4669
17.4238
17.3847
17.3494
17.318
17.2905
17.2667
17.2467
17.2305
17.2179
17.209
17.2037
17.202
17.2038
17.2091
17.2178
17.2298
17.2452
17.2639
17.2858
17.3108
17.339
17.3702
17.4044
17.4416
17.4816
17.5244
17.57
17.6184
17.6693
17.7228
17.7789
17.8374
17.8983
17.9616
18.0271
18.0949
18.1648
18.2369
18.3109
18.387
18.465
18.5448
18.6265
18.7099
18.795
18.8817
18.97
19.0599
19.1512
19.2439
19.338
19.4334
19.5301
19.628
19.727
19.8272
19.9284
20.0306
20.1337
20.2378
20.3428
20.4485
20.5551
20.6624
20.7703
20.879
20.9882
21.098
21.2083
21.3192
21.4304
21.5421
21.6542
21.7666
21.8793
21.9923
22.1055
22.2189
22.3325
22.4463
22.5601
22.6741
22.7881
22.9021
23.0161
23.1301
23.244
23.3579
23.4716
23.5853
23.6987
23.812
23.9251
24.038
24.1506
24.263
24.375
24.4868
24.5983
24.7094
24.8202
24.9306
25.0406
25.1501
25.2593
25.368
25.4763
25.5841
25.6914
25.7982
25.9046
26.0104
26.1156
26.2203
26.3245
26.428
26.531
26.6334
26.7352
26.8364
26.937
27.0369
27.1362
27.2349
27.3329
27.4302
27.5268
27.6228
27.7181
27.8127
27.9065
27.9997
28.0922
28.1839
28.2749
28.3651
28.4547
28.5434
28.6315
28.7187
28.8052
28.891
28.9759
29.0601
29.1435
29.2261
29.308
29.389
29.4692
29.5487
29.6273
29.7051
29.7821
29.8583
29.9337
30.0083
30.082
30.1549
30.227
30.2982
30.3686
30.4382
30.5069
30.5748
30.6418
30.708
30.7734
30.8379
30.9015
30.9643
31.0262
31.0873
31.1475
31.2068
31.2653
31.3229
31.3796
31.4355
31.4905
31.5446
31.5978
31.6502
31.7017
31.7523
31.802
31.8509
31.8988
31.9459
31.9921
32.0374
32.0818
32.1253
32.168
32.2097
32.2506
32.2905
32.3296
32.3678
32.4051
32.4414
32.4769
32.5115
32.5452
32.5779
32.6098
32.6408
32.6709
32.7
32.7283
32.7557
32.7821
32.8077
32.8323
32.856
32.8789
32.9008
32.9218
32.9419
32.9611
32.9793
32.9967
33.0131
33.0287
33.0433
33.057
33.0698
33.0817
33.0927
33.1028
33.1119
33.1201
33.1275
33.1339
33.1394
33.1439
33.1476
33.1503
33.1522
33.1531
28.0435
28.0291
28.0003
27.9579
27.9025
27.8349
27.7559
27.6666
27.5676
27.4598
27.3439
27.2205
27.0904
26.9539
26.8117
26.6641
26.5117
26.3548
26.1938
26.0291
25.861
25.6898
25.5159
25.3396
25.1611
24.9807
24.7987
24.6154
24.4311
24.2458
24.06
23.8738
23.6875
23.5013
23.3153
23.1298
22.945
22.7611
22.5782
22.3966
22.2163
22.0376
21.8607
21.6856
21.5126
21.3417
21.1732
21.007
20.8434
20.6825
20.5244
20.3691
20.2169
20.0677
19.9217
19.779
19.6396
19.5036
19.3712
19.2423
19.117
18.9954
18.8775
18.7634
18.653
18.5466
18.444
18.3454
18.2507
18.1599
18.0732
17.9904
17.9116
17.8368
17.7661
17.6993
17.6366
17.5779
17.5231
17.4723
17.4255
17.3826
17.3436
17.3086
17.2773
17.2499
17.2263
17.2065
17.1904
17.178
17.1692
17.1641
17.1625
17.1644
17.1698
17.1786
17.1908
17.2063
17.2251
17.247
17.2722
17.3004
17.3317
17.366
17.4032
17.4433
17.4862
17.5319
17.5802
17.6312
17.6848
17.7409
17.7994
17.8604
17.9237
17.9892
18.057
18.127
18.199
18.2731
18.3491
18.4271
18.5069
18.5886
18.672
18.7571
18.8438
18.9321
19.0219
19.1132
19.2059
19.2999
19.3953
19.4919
19.5897
19.6887
19.7888
19.8899
19.9921
20.0952
20.1992
20.304
20.4097
20.5162
20.6234
20.7313
20.8399
20.949
21.0587
21.169
21.2797
21.3909
21.5025
21.6144
21.7267
21.8393
21.9522
22.0653
22.1787
22.2922
22.4058
22.5195
22.6334
22.7472
22.8611
22.975
23.0889
23.2027
23.3165
23.4301
23.5436
23.6569
23.7701
23.883
23.9958
24.1083
24.2205
24.3325
24.4441
24.5554
24.6664
24.7771
24.8873
24.9972
25.1066
25.2157
25.3243
25.4324
25.5401
25.6473
25.7539
25.8601
25.9658
26.0709
26.1755
26.2795
26.3829
26.4858
26.5881
26.6897
26.7908
26.8912
26.991
27.0902
27.1887
27.2866
27.3838
27.4803
27.5761
27.6713
27.7657
27.8595
27.9525
28.0448
28.1364
28.2273
28.3174
28.4068
28.4955
28.5834
28.6705
28.7569
28.8425
28.9273
29.0114
29.0947
29.1772
29.2589
29.3398
29.4199
29.4993
29.5778
29.6555
29.7324
29.8085
29.8837
29.9582
30.0318
30.1046
30.1766
30.2477
30.318
30.3875
30.4561
30.5239
30.5908
30.6569
30.7222
30.7865
30.8501
30.9128
30.9746
31.0356
31.0957
31.1549
31.2133
31.2708
31.3275
31.3832
31.4382
31.4922
31.5453
31.5976
31.649
31.6996
31.7492
31.798
31.8459
31.8929
31.939
31.9842
32.0286
32.0721
32.1146
32.1563
32.1971
32.237
32.276
32.3141
32.3513
32.3876
32.4231
32.4576
32.4912
32.5239
32.5558
32.5867
32.6167
32.6459
32.6741
32.7014
32.7278
32.7533
32.7779
32.8016
32.8244
32.8463
32.8672
32.8873
32.9065
32.9247
32.942
32.9585
32.974
32.9886
33.0023
33.0151
33.0269
33.0379
33.0479
33.0571
33.0653
33.0726
33.079
33.0845
33.089
33.0927
33.0954
33.0973
33.0982
28.0029
27.9888
27.9604
27.9187
27.8639
27.7971
27.7189
27.6302
27.5318
27.4245
27.309
27.186
27.056
26.9197
26.7775
26.63
26.4776
26.3207
26.1596
25.9949
25.8267
25.6555
25.4816
25.3053
25.1268
24.9464
24.7645
24.5812
24.3969
24.2117
24.026
23.8399
23.6536
23.4674
23.2816
23.0962
22.9115
22.7277
22.5449
22.3634
22.1833
22.0048
21.8279
21.653
21.4801
21.3094
21.141
20.975
20.8115
20.6507
20.4928
20.3377
20.1856
20.0366
19.8907
19.7482
19.6089
19.4731
19.3408
19.2121
19.087
18.9655
18.8478
18.7338
18.6237
18.5174
18.415
18.3166
18.222
18.1314
18.0449
17.9622
17.8837
17.8091
17.7385
17.6719
17.6094
17.5508
17.4962
17.4456
17.399
17.3562
17.3174
17.2825
17.2515
17.2243
17.2008
17.1812
17.1653
17.153
17.1444
17.1394
17.138
17.1401
17.1457
17.1546
17.167
17.1827
17.2016
17.2237
17.249
17.2774
17.3089
17.3433
17.3807
17.4209
17.464
17.5098
17.5583
17.6094
17.6632
17.7194
17.7781
17.8392
17.9026
17.9683
18.0362
18.1063
18.1784
18.2526
18.3288
18.4069
18.4869
18.5686
18.6521
18.7373
18.8242
18.9126
19.0025
19.0939
19.1867
19.2808
19.3763
19.473
19.5709
19.67
19.7701
19.8714
19.9736
20.0768
20.1808
20.2858
20.3916
20.4981
20.6054
20.7134
20.822
20.9312
21.0409
21.1512
21.262
21.3733
21.4849
21.5969
21.7093
21.8219
21.9348
22.048
22.1614
22.2749
22.3886
22.5023
22.6162
22.7301
22.844
22.958
23.0719
23.1857
23.2995
23.4131
23.5266
23.64
23.7531
23.8661
23.9789
24.0914
24.2036
24.3156
24.4273
24.5386
24.6496
24.7602
24.8705
24.9803
25.0898
25.1988
25.3074
25.4156
25.5232
25.6304
25.7371
25.8433
25.9489
26.054
26.1586
26.2626
26.366
26.4689
26.5711
26.6728
26.7738
26.8742
26.974
27.0732
27.1717
27.2695
27.3667
27.4632
27.559
27.6541
27.7486
27.8423
27.9353
28.0276
28.1192
28.21
28.3001
28.3895
28.4781
28.566
28.6531
28.7395
28.8251
28.9099
28.9939
29.0772
29.1596
29.2413
29.3222
29.4023
29.4816
29.5601
29.6378
29.7147
29.7907
29.866
29.9404
30.014
30.0867
30.1587
30.2298
30.3001
30.3695
30.4381
30.5059
30.5728
30.6388
30.7041
30.7684
30.8319
30.8946
30.9564
31.0173
31.0774
31.1366
31.195
31.2525
31.3091
31.3649
31.4197
31.4738
31.5269
31.5792
31.6305
31.681
31.7307
31.7794
31.8273
31.8743
31.9204
31.9656
32.0099
32.0533
32.0959
32.1376
32.1783
32.2182
32.2572
32.2953
32.3325
32.3688
32.4042
32.4387
32.4723
32.505
32.5368
32.5677
32.5978
32.6269
32.6551
32.6824
32.7088
32.7343
32.7588
32.7825
32.8053
32.8272
32.8481
32.8682
32.8873
32.9056
32.9229
32.9393
32.9548
32.9694
32.9831
32.9959
33.0077
33.0187
33.0287
33.0379
33.0461
33.0534
33.0598
33.0653
33.0698
33.0735
33.0762
33.078
33.079
27.9482
27.934
27.9055
27.8636
27.8085
27.7414
27.6627
27.5736
27.4747
27.3669
27.2508
27.1273
26.9969
26.8601
26.7175
26.5697
26.417
26.2598
26.0986
25.9337
25.7655
25.5943
25.4204
25.2441
25.0657
24.8854
24.7036
24.5205
24.3364
24.1514
23.9659
23.78
23.594
23.4081
23.2225
23.0373
22.8529
22.6694
22.4869
22.3057
22.1259
21.9476
21.7711
21.5965
21.4239
21.2534
21.0853
20.9196
20.7565
20.596
20.4383
20.2835
20.1318
19.983
19.8375
19.6953
19.5563
19.4209
19.2889
19.1604
19.0356
18.9144
18.797
18.6833
18.5735
18.4675
18.3654
18.2672
18.1729
18.0827
17.9963
17.914
17.8357
17.7614
17.6911
17.6248
17.5625
17.5042
17.4498
17.3995
17.3531
17.3106
17.2721
17.2374
17.2066
17.1796
17.1564
17.137
17.1213
17.1093
17.1009
17.0962
17.0949
17.0972
17.103
17.1122
17.1247
17.1406
17.1597
17.182
17.2075
17.2361
17.2677
17.3023
17.3399
17.3803
17.4235
17.4694
17.5181
17.5694
17.6232
17.6796
17.7384
17.7997
17.8632
17.929
17.997
18.0672
18.1395
18.2138
18.2901
18.3683
18.4483
18.5302
18.6137
18.699
18.7859
18.8744
18.9644
19.0558
19.1487
19.2429
19.3384
19.4352
19.5331
19.6322
19.7324
19.8337
19.9359
20.0391
20.1432
20.2482
20.354
20.4606
20.5678
20.6758
20.7844
20.8936
21.0034
21.1137
21.2245
21.3357
21.4473
21.5593
21.6716
21.7843
21.8972
22.0103
22.1236
22.2371
22.3508
22.4645
22.5783
22.6922
22.8061
22.9199
23.0338
23.1476
23.2613
23.3749
23.4883
23.6016
23.7147
23.8277
23.9404
24.0528
24.165
24.2769
24.3885
24.4997
24.6106
24.7212
24.8314
24.9412
25.0506
25.1595
25.268
25.3761
25.4837
25.5908
25.6974
25.8034
25.909
26.014
26.1185
26.2224
26.3258
26.4285
26.5307
26.6323
26.7332
26.8336
26.9333
27.0323
27.1307
27.2285
27.3255
27.422
27.5177
27.6127
27.7071
27.8007
27.8936
27.9858
28.0773
28.1681
28.2581
28.3474
28.4359
28.5237
28.6107
28.697
28.7825
28.8672
28.9511
29.0343
29.1167
29.1983
29.2791
29.3591
29.4383
29.5167
29.5943
29.6711
29.7471
29.8222
29.8965
29.9701
30.0427
30.1146
30.1856
30.2558
30.3252
30.3937
30.4614
30.5282
30.5942
30.6593
30.7236
30.7871
30.8496
30.9114
30.9722
31.0322
31.0914
31.1497
31.2071
31.2636
31.3193
31.3741
31.4281
31.4812
31.5334
31.5847
31.6351
31.6847
31.7334
31.7812
31.8281
31.8741
31.9193
31.9636
32.007
32.0494
32.0911
32.1318
32.1716
32.2105
32.2486
32.2857
32.322
32.3573
32.3918
32.4254
32.458
32.4898
32.5207
32.5507
32.5797
32.6079
32.6352
32.6615
32.687
32.7115
32.7352
32.7579
32.7798
32.8007
32.8207
32.8399
32.8581
32.8754
32.8918
32.9073
32.9218
32.9355
32.9483
32.9601
32.971
32.9811
32.9902
32.9984
33.0057
33.0121
33.0175
33.0221
33.0258
33.0285
33.0303
33.0312
27.8911
27.8772
27.8493
27.8081
27.754
27.6878
27.6101
27.5219
27.4239
27.3168
27.2014
27.0784
26.9483
26.8118
26.6695
26.5217
26.3691
26.212
26.0508
25.8859
25.7176
25.5464
25.3725
25.1962
25.0178
24.8375
24.6558
24.4727
24.2886
24.1037
23.9183
23.7325
23.5466
23.3608
23.1753
22.9903
22.806
22.6226
22.4403
22.2592
22.0796
21.9015
21.7252
21.5507
21.3783
21.2081
21.0401
20.8746
20.7117
20.5514
20.394
20.2394
20.0878
19.9393
19.794
19.652
19.5133
19.378
19.2462
19.118
18.9934
18.8725
18.7553
18.6419
18.5323
18.4265
18.3247
18.2267
18.1327
18.0427
17.9566
17.8745
17.7964
17.7224
17.6523
17.5863
17.5242
17.4662
17.4121
17.362
17.3159
17.2737
17.2354
17.201
17.1704
17.1437
17.1208
17.1016
17.0862
17.0744
17.0663
17.0618
17.0608
17.0634
17.0694
17.0788
17.0916
17.1077
17.1271
17.1497
17.1754
17.2042
17.2361
17.2709
17.3087
17.3493
17.3928
17.439
17.4879
17.5394
17.5935
17.65
17.7091
17.7705
17.8343
17.9003
17.9685
18.0389
18.1114
18.1859
18.2624
18.3408
18.421
18.503
18.5868
18.6722
18.7593
18.848
18.9381
19.0297
19.1228
19.2171
19.3128
19.4097
19.5078
19.6071
19.7074
19.8088
19.9112
20.0145
20.1188
20.2239
20.3298
20.4365
20.5439
20.652
20.7607
20.87
20.9799
21.0903
21.2012
21.3125
21.4242
21.5363
21.6487
21.7614
21.8744
21.9876
22.101
22.2146
22.3283
22.4421
22.556
22.6699
22.7838
22.8978
23.0117
23.1255
23.2393
23.3529
23.4664
23.5798
23.6929
23.8059
23.9186
24.0311
24.1433
24.2552
24.3668
24.4781
24.5891
24.6996
24.8098
24.9197
25.029
25.138
25.2465
25.3546
25.4622
25.5693
25.6759
25.782
25.8876
25.9926
26.0971
26.201
26.3043
26.4071
26.5093
26.6108
26.7118
26.8121
26.9118
27.0108
27.1092
27.207
27.304
27.4004
27.4961
27.5912
27.6855
27.7791
27.872
27.9642
28.0557
28.1464
28.2364
28.3257
28.4142
28.5019
28.5889
28.6752
28.7606
28.8453
28.9293
29.0124
29.0948
29.1763
29.2571
29.3371
29.4163
29.4946
29.5722
29.649
29.7249
29.8
29.8743
29.9478
30.0205
30.0923
30.1633
30.2335
30.3028
30.3713
30.4389
30.5057
30.5717
30.6368
30.7011
30.7645
30.827
30.8887
30.9496
31.0095
31.0687
31.1269
31.1843
31.2408
31.2965
31.3513
31.4052
31.4582
31.5104
31.5617
31.6121
31.6616
31.7103
31.7581
31.805
31.851
31.8961
31.9404
31.9837
32.0262
32.0678
32.1085
32.1483
32.1872
32.2252
32.2624
32.2986
32.3339
32.3684
32.4019
32.4346
32.4663
32.4972
32.5271
32.5562
32.5843
32.6116
32.6379
32.6634
32.6879
32.7115
32.7343
32.7561
32.777
32.797
32.8161
32.8343
32.8516
32.868
32.8835
32.8981
32.9117
32.9245
32.9363
32.9473
32.9573
32.9664
32.9746
32.9819
32.9883
32.9937
32.9983
33.0019
33.0047
33.0065
33.0074
27.8218
27.808
27.7804
27.7395
27.6857
27.6199
27.5426
27.4547
27.3569
27.25
27.1346
27.0116
26.8815
26.745
26.6025
26.4547
26.3019
26.1447
25.9834
25.8184
25.6501
25.4788
25.3049
25.1286
24.9503
24.7701
24.5885
24.4055
24.2216
24.0369
23.8516
23.666
23.4803
23.2947
23.1095
22.9247
22.7407
22.5576
22.3755
22.1947
22.0153
21.8375
21.6615
21.4873
21.3152
21.1453
20.9776
20.8125
20.6498
20.4899
20.3327
20.1785
20.0272
19.879
19.734
19.5923
19.454
19.319
19.1876
19.0597
18.9354
18.8148
18.6979
18.5849
18.4756
18.3702
18.2686
18.171
18.0773
17.9876
17.9019
17.8201
17.7424
17.6686
17.5989
17.5332
17.4715
17.4138
17.36
17.3103
17.2644
17.2225
17.1846
17.1505
17.1202
17.0938
17.0712
17.0524
17.0372
17.0258
17.018
17.0137
17.0131
17.0159
17.0222
17.0319
17.045
17.0614
17.0811
17.1039
17.1299
17.159
17.1911
17.2262
17.2643
17.3052
17.3489
17.3953
17.4444
17.4962
17.5505
17.6073
17.6666
17.7283
17.7922
17.8585
17.9269
17.9975
18.0702
18.1449
18.2216
18.3001
18.3806
18.4628
18.5467
18.6323
18.7196
18.8084
18.8987
18.9905
19.0836
19.1782
19.274
19.371
19.4693
19.5686
19.6691
19.7706
19.8731
19.9766
20.0809
20.1861
20.2921
20.3989
20.5064
20.6146
20.7234
20.8328
20.9427
21.0532
21.1641
21.2755
21.3873
21.4994
21.6119
21.7247
21.8377
21.9509
22.0644
22.178
22.2917
22.4056
22.5195
22.6334
22.7474
22.8613
22.9753
23.0891
23.2029
23.3165
23.43
23.5434
23.6565
23.7695
23.8822
23.9947
24.1069
24.2188
24.3304
24.4416
24.5526
24.6631
24.7733
24.8831
24.9924
25.1014
25.2099
25.3179
25.4255
25.5325
25.6391
25.7452
25.8507
25.9557
26.0601
26.164
26.2673
26.37
26.4721
26.5736
26.6745
26.7748
26.8744
26.9734
27.0717
27.1694
27.2664
27.3628
27.4584
27.5534
27.6476
27.7412
27.834
27.9262
28.0176
28.1082
28.1982
28.2874
28.3758
28.4635
28.5505
28.6366
28.722
28.8067
28.8905
28.9736
29.0559
29.1374
29.2181
29.298
29.3771
29.4554
29.5329
29.6096
29.6855
29.7606
29.8348
29.9082
29.9808
30.0526
30.1235
30.1936
30.2629
30.3313
30.3989
30.4656
30.5315
30.5966
30.6608
30.7241
30.7866
30.8483
30.909
30.969
31.028
31.0862
31.1435
31.2
31.2556
31.3103
31.3642
31.4172
31.4693
31.5205
31.5709
31.6204
31.669
31.7167
31.7636
31.8095
31.8546
31.8988
31.9421
31.9846
32.0261
32.0668
32.1065
32.1454
32.1834
32.2205
32.2567
32.292
32.3264
32.3599
32.3925
32.4242
32.455
32.4849
32.514
32.5421
32.5693
32.5956
32.621
32.6455
32.6692
32.6919
32.7137
32.7346
32.7545
32.7736
32.7918
32.8091
32.8255
32.8409
32.8555
32.8691
32.8818
32.8937
32.9046
32.9146
32.9237
32.9319
32.9392
32.9455
32.951
32.9556
32.9592
32.9619
32.9638
32.9647
27.7498
27.7363
27.7092
27.6691
27.6163
27.5516
27.4754
27.3886
27.2919
27.1859
27.0714
26.9491
26.8196
26.6835
26.5413
26.3937
26.2411
26.084
25.9228
25.7579
25.5896
25.4184
25.2444
25.0682
24.8898
24.7097
24.5281
24.3452
24.1614
23.9767
23.7915
23.6061
23.4205
23.2351
23.05
22.8654
22.6815
22.4985
22.3167
22.1361
21.9569
21.7793
21.6035
21.4295
21.2576
21.0879
20.9205
20.7556
20.5932
20.4335
20.2766
20.1226
19.9716
19.8237
19.679
19.5375
19.3994
19.2648
19.1336
19.006
18.882
18.7617
18.6452
18.5324
18.4234
18.3183
18.2171
18.1198
18.0264
17.937
17.8516
17.7702
17.6928
17.6193
17.5499
17.4846
17.4232
17.3658
17.3124
17.2629
17.2175
17.1759
17.1383
17.1045
17.0746
17.0486
17.0263
17.0078
16.993
16.9819
16.9744
16.9705
16.9702
16.9734
16.98
16.9901
17.0035
17.0202
17.0402
17.0634
17.0897
17.1191
17.1516
17.187
17.2254
17.2666
17.3106
17.3574
17.4068
17.4589
17.5135
17.5706
17.6302
17.6921
17.7564
17.8229
17.8917
17.9626
18.0355
18.1105
18.1874
18.2663
18.347
18.4294
18.5136
18.5995
18.687
18.7761
18.8666
18.9586
19.052
19.1468
19.2428
19.3401
19.4385
19.5381
19.6388
19.7405
19.8432
19.9469
20.0514
20.1568
20.263
20.3699
20.4776
20.586
20.6949
20.8045
20.9146
21.0252
21.1363
21.2478
21.3597
21.472
21.5846
21.6975
21.8107
21.924
22.0376
22.1513
22.2652
22.3791
22.4931
22.6072
22.7213
22.8353
22.9493
23.0632
23.1771
23.2908
23.4044
23.5178
23.631
23.7441
23.8568
23.9694
24.0816
24.1936
24.3053
24.4166
24.5276
24.6382
24.7484
24.8582
24.9676
25.0766
25.1851
25.2932
25.4008
25.5079
25.6145
25.7205
25.8261
25.9311
26.0355
26.1394
26.2427
26.3455
26.4476
26.5491
26.65
26.7503
26.8499
26.9489
27.0473
27.1449
27.2419
27.3383
27.4339
27.5289
27.6231
27.7167
27.8095
27.9016
27.993
28.0837
28.1736
28.2628
28.3512
28.4389
28.5258
28.612
28.6974
28.782
28.8658
28.9489
29.0311
29.1126
29.1933
29.2732
29.3523
29.4306
29.508
29.5847
29.6606
29.7356
29.8098
29.8832
29.9558
30.0275
30.0984
30.1685
30.2377
30.3061
30.3737
30.4404
30.5062
30.5713
30.6354
30.6987
30.7612
30.8228
30.8836
30.9435
31.0025
31.0606
31.118
31.1744
31.23
31.2847
31.3385
31.3915
31.4435
31.4948
31.5451
31.5946
31.6431
31.6908
31.7377
31.7836
31.8287
31.8728
31.9161
31.9585
32
32.0407
32.0804
32.1192
32.1572
32.1943
32.2304
32.2657
32.3001
32.3336
32.3662
32.3979
32.4287
32.4586
32.4876
32.5157
32.5429
32.5692
32.5946
32.6191
32.6427
32.6654
32.6871
32.708
32.728
32.7471
32.7652
32.7825
32.7989
32.8143
32.8289
32.8425
32.8552
32.867
32.8779
32.888
32.897
32.9052
32.9125
32.9189
32.9243
32.9289
32.9325
32.9353
32.9371
32.938
27.6671
27.6538
27.6271
27.5876
27.5355
27.4715
27.3961
27.31
27.214
27.1086
26.9946
26.8727
26.7435
26.6077
26.4657
26.3183
26.1657
26.0087
25.8475
25.6825
25.5143
25.343
25.1692
24.9929
24.8147
24.6346
24.4531
24.2703
24.0866
23.9021
23.7171
23.5318
23.3464
23.1612
22.9763
22.7919
22.6083
22.4256
22.244
22.0637
21.8848
21.7075
21.5319
21.3583
21.1867
21.0173
20.8502
20.6856
20.5235
20.3642
20.2076
20.0539
19.9033
19.7557
19.6113
19.4702
19.3325
19.1982
19.0674
18.9402
18.8165
18.6966
18.5804
18.468
18.3594
18.2547
18.1538
18.0569
17.9639
17.8749
17.7899
17.7088
17.6318
17.5588
17.4898
17.4248
17.3638
17.3068
17.2537
17.2047
17.1596
17.1185
17.0812
17.0479
17.0184
16.9927
16.9708
16.9527
16.9383
16.9275
16.9204
16.917
16.917
16.9206
16.9276
16.938
16.9518
16.9689
16.9893
17.0128
17.0395
17.0693
17.1021
17.1379
17.1766
17.2182
17.2625
17.3096
17.3594
17.4118
17.4668
17.5242
17.5841
17.6464
17.711
17.7778
17.8469
17.918
17.9913
18.0665
18.1438
18.2229
18.3039
18.3866
18.4711
18.5572
18.645
18.7343
18.8251
18.9173
19.011
19.1059
19.2022
19.2997
19.3984
19.4982
19.599
19.701
19.8039
19.9077
20.0124
20.118
20.2244
20.3315
20.4393
20.5478
20.657
20.7667
20.8769
20.9877
21.0989
21.2106
21.3226
21.435
21.5478
21.6608
21.774
21.8875
22.0012
22.115
22.2289
22.343
22.4571
22.5712
22.6853
22.7995
22.9136
23.0276
23.1415
23.2552
23.3689
23.4824
23.5956
23.7087
23.8215
23.9341
24.0464
24.1584
24.2701
24.3814
24.4924
24.6031
24.7133
24.8231
24.9326
25.0416
25.1501
25.2582
25.3658
25.4729
25.5794
25.6855
25.7911
25.8961
26.0005
26.1044
26.2077
26.3104
26.4125
26.514
26.6149
26.7151
26.8148
26.9137
27.012
27.1097
27.2067
27.303
27.3986
27.4935
27.5877
27.6813
27.7741
27.8661
27.9575
28.0481
28.138
28.2271
28.3155
28.4032
28.49
28.5762
28.6615
28.7461
28.8299
28.9129
28.9951
29.0765
29.1572
29.237
29.3161
29.3943
29.4717
29.5483
29.6241
29.6991
29.7733
29.8466
29.9191
29.9908
30.0617
30.1317
30.2009
30.2692
30.3367
30.4034
30.4692
30.5342
30.5983
30.6616
30.724
30.7856
30.8463
30.9061
30.9651
31.0232
31.0805
31.1369
31.1924
31.247
31.3008
31.3537
31.4058
31.4569
31.5072
31.5567
31.6052
31.6529
31.6996
31.7455
31.7906
31.8347
31.8779
31.9203
31.9618
32.0024
32.0421
32.0809
32.1188
32.1558
32.192
32.2272
32.2616
32.295
32.3276
32.3592
32.39
32.4199
32.4489
32.4769
32.5041
32.5304
32.5557
32.5802
32.6038
32.6265
32.6482
32.6691
32.689
32.7081
32.7263
32.7435
32.7598
32.7753
32.7898
32.8034
32.8161
32.8279
32.8388
32.8488
32.8579
32.8661
32.8734
32.8797
32.8852
32.8897
32.8934
32.8961
32.8979
32.8988
27.581
27.568
27.5419
27.5032
27.4521
27.3892
27.315
27.2301
27.1352
27.031
26.918
26.7969
26.6685
26.5333
26.3918
26.2447
26.0925
25.9357
25.7747
25.6099
25.4417
25.2706
25.0967
24.9206
24.7423
24.5624
24.3809
24.1982
24.0146
23.8302
23.6453
23.4602
23.2749
23.0899
22.9051
22.721
22.5375
22.355
22.1736
21.9935
21.8149
21.6378
21.4625
21.2891
21.1178
20.9487
20.7818
20.6175
20.4557
20.2966
20.1404
19.987
19.8367
19.6894
19.5454
19.4046
19.2672
19.1332
19.0027
18.8759
18.7526
18.633
18.5172
18.4051
18.2969
18.1925
18.0921
17.9955
17.9029
17.8143
17.7296
17.649
17.5724
17.4997
17.4311
17.3665
17.3059
17.2494
17.1968
17.1481
17.1035
17.0627
17.0259
16.993
16.9639
16.9386
16.9172
16.8995
16.8855
16.8752
16.8685
16.8655
16.8659
16.8699
16.8774
16.8883
16.9025
16.92
16.9408
16.9647
16.9918
17.022
17.0553
17.0915
17.1306
17.1726
17.2173
17.2648
17.315
17.3678
17.4231
17.481
17.5413
17.6039
17.6689
17.7361
17.8055
17.877
17.9507
18.0263
18.1039
18.1833
18.2646
18.3477
18.4325
18.519
18.6071
18.6967
18.7878
18.8804
18.9743
19.0696
19.1662
19.2639
19.3629
19.463
19.5641
19.6663
19.7695
19.8736
19.9786
20.0844
20.191
20.2984
20.4064
20.5152
20.6245
20.7345
20.8449
20.9559
21.0673
21.1792
21.2914
21.404
21.5169
21.6301
21.7436
21.8572
21.971
22.085
22.1991
22.3133
22.4276
22.5418
22.6561
22.7704
22.8846
22.9987
23.1127
23.2266
23.3404
23.454
23.5674
23.6805
23.7935
23.9061
24.0185
24.1306
24.2424
24.3538
24.4649
24.5756
24.6859
24.7958
24.9053
25.0143
25.1229
25.2311
25.3387
25.4459
25.5525
25.6586
25.7642
25.8693
25.9737
26.0776
26.181
26.2837
26.3859
26.4874
26.5883
26.6886
26.7882
26.8872
26.9855
27.0832
27.1802
27.2765
27.3721
27.467
27.5613
27.6548
27.7476
27.8397
27.931
28.0217
28.1115
28.2007
28.2891
28.3767
28.4635
28.5497
28.635
28.7195
28.8033
28.8863
28.9685
29.0499
29.1306
29.2104
29.2894
29.3676
29.445
29.5216
29.5974
29.6724
29.7465
29.8199
29.8923
29.964
30.0348
30.1048
30.174
30.2423
30.3098
30.3764
30.4422
30.5072
30.5713
30.6345
30.6969
30.7584
30.8191
30.8789
30.9379
30.996
31.0532
31.1096
31.165
31.2197
31.2734
31.3263
31.3783
31.4295
31.4797
31.5291
31.5776
31.6253
31.672
31.7179
31.7629
31.807
31.8502
31.8926
31.934
31.9746
32.0143
32.0531
32.0909
32.128
32.1641
32.1993
32.2336
32.2671
32.2996
32.3312
32.362
32.3918
32.4208
32.4489
32.476
32.5023
32.5276
32.5521
32.5756
32.5983
32.62
32.6409
32.6608
32.6799
32.698
32.7152
32.7316
32.747
32.7615
32.7751
32.7878
32.7996
32.8105
32.8205
32.8296
32.8378
32.845
32.8514
32.8568
32.8614
32.865
32.8677
32.8695
32.8705
27.4854
27.4726
27.447
27.409
27.3587
27.2967
27.2235
27.1397
27.0457
26.9423
26.8302
26.7099
26.582
26.4473
26.3063
26.1596
26.0077
25.851
25.6902
25.5255
25.3575
25.1864
25.0127
24.8366
24.6584
24.4786
24.2972
24.1147
23.9311
23.7469
23.5622
23.3772
23.1922
23.0073
22.8228
22.6389
22.4557
22.2735
22.0923
21.9125
21.7341
21.5573
21.3824
21.2093
21.0383
20.8695
20.703
20.539
20.3775
20.2188
20.0629
19.9099
19.7599
19.613
19.4694
19.329
19.192
19.0584
18.9283
18.8018
18.679
18.5598
18.4444
18.3327
18.2249
18.121
18.0209
17.9248
17.8327
17.7445
17.6603
17.5801
17.5039
17.4317
17.3636
17.2994
17.2393
17.1832
17.1311
17.0829
17.0387
16.9984
16.9621
16.9296
16.901
16.8762
16.8552
16.838
16.8245
16.8146
16.8085
16.8059
16.8068
16.8113
16.8192
16.8305
16.8452
16.8632
16.8844
16.9089
16.9364
16.9671
17.0008
17.0374
17.077
17.1194
17.1646
17.2125
17.2631
17.3163
17.3721
17.4304
17.4911
17.5541
17.6195
17.6871
17.7569
17.8289
17.9029
17.9789
18.0568
18.1367
18.2183
18.3018
18.3869
18.4738
18.5622
18.6521
18.7436
18.8365
18.9307
19.0263
19.1232
19.2213
19.3205
19.4209
19.5224
19.6248
19.7283
19.8327
19.9379
20.044
20.1508
20.2585
20.3668
20.4757
20.5853
20.6955
20.8061
20.9173
21.029
21.141
21.2535
21.3663
21.4793
21.5927
21.7063
21.8201
21.9341
22.0483
22.1625
22.2769
22.3913
22.5057
22.6201
22.7345
22.8488
22.9631
23.0772
23.1912
23.3051
23.4188