/*--------------------------------*- C++ -*----------------------------------*\
| =========                 |                                                 |
| \\      /  F ield         | OpenFOAM: The Open Source CFD Toolbox           |
|  \\    /   O peration     | Version:  2212                                  |
|   \\  /    A nd           | Website:  www.openfoam.com                      |
|    \\/     M anipulation  |                                                 |
\*---------------------------------------------------------------------------*/
FoamFile
{
    version     2.0;
    format      ascii;
    arch        "LSB;label=32;scalar=64";
    class       volScalarField;
    location    "1010";
    object      p_rgh_0;
}
// * * * * * * * * * * * * * * * * * * * * * * * * * * * * * * * * * * * * * //

dimensions      [1 -1 -2 0 0 0 0];

internalField   nonuniform List<scalar> 
204800
(
52.1269
52.1266
52.1252
52.1234
52.1206
52.117
52.1123
52.1066
52.0998
52.0919
52.083
52.073
52.0621
52.0502
52.0375
52.0238
52.0093
51.994
51.9779
51.9609
51.9431
51.9246
51.9052
51.885
51.8641
51.8424
51.82
51.7967
51.7728
51.7481
51.7226
51.6965
51.6696
51.6421
51.6138
51.5849
51.5553
51.525
51.4941
51.4625
51.4303
51.3975
51.3641
51.3301
51.2955
51.2604
51.2246
51.1884
51.1516
51.1142
51.0764
51.0381
50.9992
50.9599
50.9202
50.88
50.8394
50.7983
50.7569
50.7151
50.6729
50.6303
50.5874
50.5441
50.5006
50.4567
50.4125
50.3681
50.3234
50.2785
50.2333
50.1879
50.1423
50.0966
50.0506
50.0045
49.9583
49.9119
49.8654
49.8188
49.7722
49.7254
49.6786
49.6318
49.585
49.5381
49.4912
49.4444
49.3976
49.3508
49.3041
49.2575
49.211
49.1646
49.1182
49.0721
49.026
48.9801
48.9344
48.8889
48.8436
48.7985
48.7536
48.7089
48.6645
48.6203
48.5764
48.5328
48.4895
48.4465
48.4038
48.3615
48.3195
48.2778
48.2365
48.1955
48.155
48.1148
48.0751
48.0357
47.9968
47.9582
47.9202
47.8825
47.8454
47.8087
47.7724
47.7366
47.7013
47.6665
47.6322
47.5985
47.5652
47.5324
47.5001
47.4684
47.4372
47.4066
47.3765
47.3469
47.3179
47.2894
47.2616
47.2342
47.2075
47.1813
47.1556
47.1306
47.1061
47.0822
47.0589
47.0361
47.014
46.9924
46.9714
46.951
46.9312
46.912
46.8933
46.8752
46.8578
46.8409
46.8246
46.8088
46.7937
46.7791
46.7651
46.7516
46.7388
46.7265
46.7148
46.7036
46.693
46.6829
46.6734
46.6645
46.6561
46.6482
46.6409
46.6341
46.6278
46.6221
46.6168
46.6121
46.6079
46.6041
46.6009
46.5982
46.5959
46.5942
46.5929
46.592
46.5916
46.5917
46.5922
46.5932
46.5946
46.5964
46.5986
46.6012
46.6043
46.6077
46.6115
46.6157
46.6203
46.6252
46.6305
46.6362
46.6422
46.6485
46.6551
46.6621
46.6694
46.677
46.6848
46.693
46.7014
46.7101
46.7191
46.7283
46.7378
46.7475
46.7574
46.7676
46.7779
46.7885
46.7992
46.8102
46.8213
46.8326
46.844
46.8556
46.8674
46.8792
46.8912
46.9034
46.9156
46.9279
46.9404
46.9529
46.9655
46.9782
46.9909
47.0037
47.0166
47.0294
47.0423
47.0553
47.0682
47.0812
47.0942
47.1071
47.1201
47.133
47.1459
47.1588
47.1716
47.1844
47.1971
47.2098
47.2224
47.2349
47.2473
47.2597
47.2719
47.2841
47.2961
47.3081
47.3199
47.3316
47.3431
47.3546
47.3659
47.377
47.388
47.3988
47.4095
47.42
47.4303
47.4404
47.4504
47.4601
47.4697
47.4791
47.4883
47.4973
47.506
47.5146
47.5229
47.531
47.5389
47.5466
47.554
47.5612
47.5681
47.5749
47.5813
47.5875
47.5935
47.5992
47.6047
47.6099
47.6148
47.6195
47.6239
47.6281
47.632
47.6356
47.6389
47.642
47.6448
47.6473
47.6495
47.6515
47.6532
47.6546
47.6557
47.6566
47.6571
47.6574
52.036
52.0349
52.0326
52.0294
52.0251
52.02
52.014
52.0071
51.9994
51.9908
51.9813
51.971
51.9599
51.9478
51.935
51.9213
51.9068
51.8915
51.8753
51.8583
51.8406
51.822
51.8027
51.7826
51.7617
51.74
51.7176
51.6944
51.6705
51.6458
51.6204
51.5943
51.5675
51.54
51.5118
51.4829
51.4534
51.4231
51.3923
51.3608
51.3286
51.2959
51.2625
51.2286
51.1941
51.159
51.1233
51.0871
51.0504
51.0131
50.9753
50.9371
50.8983
50.8591
50.8194
50.7793
50.7388
50.6978
50.6564
50.6147
50.5725
50.5301
50.4872
50.4441
50.4006
50.3568
50.3127
50.2684
50.2237
50.1789
50.1338
50.0885
50.043
49.9973
49.9514
49.9054
49.8593
49.813
49.7666
49.7201
49.6735
49.6269
49.5802
49.5334
49.4867
49.4399
49.3931
49.3464
49.2996
49.253
49.2064
49.1598
49.1134
49.067
49.0208
48.9747
48.9288
48.883
48.8373
48.7919
48.7466
48.7016
48.6568
48.6122
48.5679
48.5238
48.48
48.4365
48.3933
48.3503
48.3077
48.2654
48.2235
48.1819
48.1407
48.0998
48.0593
48.0192
47.9796
47.9403
47.9014
47.863
47.825
47.7874
47.7503
47.7137
47.6775
47.6418
47.6065
47.5718
47.5376
47.5038
47.4706
47.4379
47.4057
47.3741
47.3429
47.3123
47.2823
47.2528
47.2238
47.1954
47.1676
47.1403
47.1136
47.0874
47.0618
47.0368
47.0124
46.9885
46.9653
46.9426
46.9205
46.8989
46.878
46.8576
46.8378
46.8186
46.8
46.782
46.7645
46.7477
46.7314
46.7157
46.7006
46.686
46.672
46.6586
46.6458
46.6335
46.6218
46.6107
46.6001
46.5901
46.5806
46.5716
46.5633
46.5554
46.5481
46.5413
46.535
46.5293
46.5241
46.5193
46.5151
46.5114
46.5082
46.5055
46.5032
46.5015
46.5002
46.4993
46.4989
46.499
46.4995
46.5005
46.5019
46.5037
46.5059
46.5085
46.5115
46.515
46.5188
46.523
46.5276
46.5325
46.5378
46.5434
46.5494
46.5557
46.5623
46.5693
46.5766
46.5841
46.592
46.6001
46.6086
46.6172
46.6262
46.6354
46.6448
46.6545
46.6644
46.6746
46.6849
46.6954
46.7062
46.7171
46.7282
46.7394
46.7509
46.7624
46.7742
46.786
46.798
46.8101
46.8223
46.8346
46.8471
46.8596
46.8721
46.8848
46.8975
46.9103
46.9231
46.9359
46.9488
46.9617
46.9747
46.9876
47.0006
47.0135
47.0264
47.0393
47.0522
47.0651
47.0779
47.0906
47.1033
47.116
47.1285
47.141
47.1534
47.1658
47.178
47.1901
47.2022
47.2141
47.2259
47.2375
47.2491
47.2605
47.2717
47.2829
47.2938
47.3046
47.3153
47.3257
47.336
47.3462
47.3561
47.3659
47.3754
47.3848
47.3939
47.4029
47.4116
47.4202
47.4285
47.4366
47.4445
47.4521
47.4595
47.4667
47.4737
47.4804
47.4868
47.493
47.499
47.5047
47.5101
47.5153
47.5203
47.5249
47.5293
47.5335
47.5374
47.541
47.5443
47.5474
47.5502
47.5527
47.5549
47.5569
47.5585
47.5599
47.5611
47.5619
47.5625
47.5628
52.0167
52.0157
52.0134
52.0102
52.0059
52.0008
51.9947
51.9879
51.9801
51.9715
51.962
51.9517
51.9405
51.9284
51.9156
51.9019
51.8873
51.872
51.8558
51.8388
51.8211
51.8025
51.7832
51.763
51.7421
51.7204
51.698
51.6748
51.6509
51.6262
51.6008
51.5747
51.5479
51.5204
51.4922
51.4633
51.4338
51.4036
51.3727
51.3412
51.3091
51.2763
51.243
51.209
51.1745
51.1394
51.1037
51.0675
51.0308
50.9935
50.9558
50.9175
50.8788
50.8396
50.7999
50.7598
50.7192
50.6783
50.6369
50.5952
50.553
50.5105
50.4677
50.4245
50.3811
50.3373
50.2932
50.2489
50.2043
50.1594
50.1143
50.069
50.0235
49.9779
49.932
49.886
49.8398
49.7936
49.7472
49.7007
49.6541
49.6075
49.5608
49.514
49.4673
49.4205
49.3737
49.327
49.2803
49.2336
49.187
49.1405
49.094
49.0477
49.0015
48.9554
48.9094
48.8636
48.818
48.7726
48.7273
48.6823
48.6375
48.5929
48.5486
48.5045
48.4607
48.4172
48.374
48.3311
48.2885
48.2462
48.2043
48.1627
48.1215
48.0806
48.0401
48.0001
47.9604
47.9211
47.8822
47.8438
47.8058
47.7683
47.7312
47.6945
47.6583
47.6226
47.5874
47.5527
47.5185
47.4847
47.4515
47.4188
47.3866
47.355
47.3239
47.2933
47.2632
47.2337
47.2048
47.1764
47.1486
47.1213
47.0946
47.0684
47.0428
47.0178
46.9934
46.9696
46.9463
46.9236
46.9015
46.88
46.859
46.8387
46.8189
46.7997
46.7811
46.7631
46.7456
46.7288
46.7125
46.6968
46.6817
46.6671
46.6532
46.6398
46.6269
46.6147
46.603
46.5918
46.5812
46.5712
46.5617
46.5528
46.5444
46.5366
46.5293
46.5225
46.5162
46.5105
46.5053
46.5006
46.4964
46.4926
46.4894
46.4867
46.4845
46.4827
46.4814
46.4806
46.4802
46.4803
46.4808
46.4817
46.4831
46.4849
46.4872
46.4898
46.4928
46.4963
46.5001
46.5043
46.5089
46.5138
46.5191
46.5247
46.5307
46.537
46.5437
46.5506
46.5579
46.5655
46.5733
46.5815
46.5899
46.5986
46.6075
46.6167
46.6262
46.6359
46.6458
46.6559
46.6662
46.6768
46.6875
46.6984
46.7095
46.7208
46.7322
46.7438
46.7555
46.7674
46.7794
46.7915
46.8037
46.816
46.8284
46.8409
46.8535
46.8662
46.8789
46.8917
46.9045
46.9173
46.9302
46.9431
46.9561
46.969
46.982
46.9949
47.0078
47.0207
47.0336
47.0464
47.0593
47.072
47.0847
47.0973
47.1099
47.1224
47.1348
47.1472
47.1594
47.1715
47.1836
47.1955
47.2073
47.2189
47.2305
47.2419
47.2531
47.2642
47.2752
47.286
47.2967
47.3071
47.3174
47.3276
47.3375
47.3472
47.3568
47.3662
47.3753
47.3843
47.393
47.4016
47.4099
47.418
47.4259
47.4335
47.4409
47.4481
47.455
47.4617
47.4682
47.4744
47.4804
47.4861
47.4915
47.4967
47.5017
47.5063
47.5107
47.5149
47.5188
47.5224
47.5257
47.5288
47.5315
47.5341
47.5363
47.5382
47.5399
47.5413
47.5425
47.5433
47.5439
47.5441
51.936
51.9347
51.932
51.9282
51.9232
51.9174
51.9106
51.9031
51.8948
51.8857
51.8759
51.8652
51.8538
51.8416
51.8286
51.8148
51.8002
51.7848
51.7686
51.7516
51.7338
51.7152
51.6959
51.6757
51.6548
51.6332
51.6108
51.5876
51.5637
51.539
51.5137
51.4876
51.4608
51.4333
51.4052
51.3763
51.3468
51.3166
51.2858
51.2543
51.2222
51.1895
51.1562
51.1223
51.0878
51.0528
51.0172
50.981
50.9443
50.9071
50.8694
50.8312
50.7925
50.7533
50.7137
50.6736
50.6331
50.5922
50.5509
50.5092
50.4671
50.4247
50.3819
50.3388
50.2954
50.2517
50.2077
50.1634
50.1188
50.074
50.029
49.9838
49.9383
49.8927
49.8469
49.801
49.7549
49.7087
49.6623
49.6159
49.5694
49.5228
49.4762
49.4295
49.3828
49.3361
49.2894
49.2427
49.1961
49.1495
49.1029
49.0564
49.0101
48.9638
48.9176
48.8716
48.8257
48.78
48.7344
48.6891
48.6439
48.5989
48.5542
48.5096
48.4654
48.4214
48.3776
48.3342
48.291
48.2481
48.2056
48.1634
48.1215
48.08
48.0388
47.998
47.9576
47.9176
47.8779
47.8387
47.7999
47.7615
47.7236
47.6861
47.649
47.6124
47.5763
47.5407
47.5055
47.4708
47.4366
47.403
47.3698
47.3371
47.305
47.2734
47.2423
47.2118
47.1818
47.1523
47.1234
47.095
47.0672
47.04
47.0133
46.9872
46.9617
46.9367
46.9123
46.8885
46.8653
46.8426
46.8205
46.7991
46.7781
46.7578
46.7381
46.7189
46.7003
46.6823
46.6649
46.6481
46.6318
46.6161
46.601
46.5865
46.5726
46.5592
46.5464
46.5341
46.5225
46.5113
46.5008
46.4908
46.4813
46.4724
46.464
46.4562
46.4489
46.4421
46.4359
46.4301
46.4249
46.4202
46.416
46.4123
46.4091
46.4064
46.4042
46.4024
46.4011
46.4003
46.3999
46.4
46.4005
46.4015
46.4029
46.4047
46.4069
46.4095
46.4126
46.416
46.4198
46.424
46.4286
46.4335
46.4388
46.4444
46.4504
46.4567
46.4634
46.4703
46.4776
46.4851
46.493
46.5011
46.5095
46.5182
46.5272
46.5364
46.5458
46.5555
46.5654
46.5755
46.5858
46.5963
46.6071
46.618
46.6291
46.6403
46.6517
46.6633
46.675
46.6868
46.6988
46.7109
46.7231
46.7354
46.7478
46.7603
46.7729
46.7855
46.7982
46.8109
46.8237
46.8366
46.8495
46.8624
46.8753
46.8882
46.9011
46.9141
46.927
46.9399
46.9527
46.9655
46.9783
46.9911
47.0038
47.0164
47.0289
47.0414
47.0538
47.0661
47.0783
47.0905
47.1025
47.1144
47.1261
47.1378
47.1493
47.1607
47.172
47.1831
47.194
47.2048
47.2154
47.2259
47.2362
47.2463
47.2562
47.2659
47.2755
47.2848
47.294
47.3029
47.3117
47.3202
47.3285
47.3366
47.3445
47.3521
47.3595
47.3667
47.3736
47.3803
47.3867
47.3929
47.3989
47.4046
47.41
47.4152
47.4201
47.4248
47.4292
47.4333
47.4372
47.4408
47.4441
47.4472
47.45
47.4525
47.4547
47.4567
47.4584
47.4598
47.4609
47.4617
47.4623
47.4626
51.9043
51.903
51.9003
51.8966
51.8917
51.8859
51.8792
51.8717
51.8634
51.8543
51.8444
51.8338
51.8223
51.8101
51.797
51.7832
51.7686
51.7531
51.7369
51.7199
51.7021
51.6835
51.6641
51.6439
51.623
51.6013
51.5789
51.5557
51.5318
51.5072
51.4818
51.4557
51.4289
51.4014
51.3732
51.3444
51.3149
51.2847
51.2539
51.2224
51.1903
51.1576
51.1243
51.0904
51.0559
51.0208
50.9852
50.9491
50.9124
50.8752
50.8374
50.7992
50.7605
50.7214
50.6818
50.6417
50.6012
50.5603
50.519
50.4773
50.4352
50.3928
50.35
50.3069
50.2635
50.2198
50.1758
50.1315
50.087
50.0422
49.9972
49.9519
49.9065
49.8609
49.8151
49.7691
49.723
49.6768
49.6305
49.5841
49.5376
49.491
49.4444
49.3977
49.351
49.3043
49.2576
49.2109
49.1643
49.1177
49.0711
49.0247
48.9783
48.932
48.8859
48.8399
48.794
48.7483
48.7027
48.6573
48.6122
48.5672
48.5225
48.478
48.4337
48.3897
48.346
48.3025
48.2594
48.2165
48.174
48.1318
48.0899
48.0484
48.0072
47.9664
47.926
47.886
47.8464
47.8071
47.7684
47.73
47.692
47.6545
47.6175
47.5809
47.5448
47.5092
47.474
47.4393
47.4052
47.3715
47.3383
47.3057
47.2736
47.242
47.2109
47.1803
47.1504
47.1209
47.092
47.0637
47.0359
47.0086
46.982
46.9559
46.9304
46.9054
46.881
46.8572
46.834
46.8113
46.7893
46.7678
46.7469
46.7266
46.7068
46.6877
46.6691
46.6511
46.6337
46.6169
46.6006
46.585
46.5699
46.5554
46.5414
46.5281
46.5153
46.503
46.4913
46.4802
46.4697
46.4597
46.4502
46.4413
46.433
46.4251
46.4178
46.4111
46.4048
46.3991
46.3939
46.3892
46.385
46.3813
46.3781
46.3754
46.3732
46.3715
46.3702
46.3693
46.369
46.3691
46.3696
46.3706
46.372
46.3738
46.376
46.3786
46.3817
46.3851
46.389
46.3932
46.3977
46.4027
46.408
46.4136
46.4196
46.4259
46.4325
46.4395
46.4468
46.4543
46.4622
46.4703
46.4788
46.4874
46.4964
46.5056
46.515
46.5247
46.5346
46.5447
46.5551
46.5656
46.5763
46.5872
46.5983
46.6096
46.621
46.6326
46.6443
46.6561
46.6681
46.6802
46.6924
46.7047
46.7171
46.7296
46.7422
46.7548
46.7675
46.7803
46.7931
46.8059
46.8188
46.8317
46.8446
46.8575
46.8705
46.8834
46.8963
46.9092
46.9221
46.9349
46.9477
46.9604
46.9731
46.9857
46.9983
47.0108
47.0232
47.0355
47.0477
47.0598
47.0718
47.0837
47.0955
47.1072
47.1187
47.1301
47.1413
47.1524
47.1634
47.1742
47.1848
47.1953
47.2056
47.2157
47.2256
47.2353
47.2449
47.2542
47.2634
47.2723
47.2811
47.2896
47.2979
47.306
47.3139
47.3215
47.3289
47.3361
47.343
47.3497
47.3561
47.3623
47.3683
47.374
47.3794
47.3846
47.3895
47.3942
47.3986
47.4027
47.4066
47.4102
47.4135
47.4166
47.4194
47.4219
47.4241
47.4261
47.4278
47.4292
47.4303
47.4311
47.4317
47.432
51.8309
51.8295
51.8267
51.8227
51.8175
51.8114
51.8044
51.7966
51.7879
51.7786
51.7684
51.7576
51.7459
51.7335
51.7204
51.7064
51.6917
51.6762
51.6599
51.6428
51.625
51.6064
51.587
51.5668
51.5459
51.5242
51.5018
51.4786
51.4547
51.43
51.4047
51.3786
51.3518
51.3243
51.2962
51.2673
51.2378
51.2077
51.1768
51.1454
51.1133
51.0806
51.0474
51.0135
50.979
50.944
50.9084
50.8723
50.8356
50.7984
50.7608
50.7226
50.6839
50.6448
50.6052
50.5652
50.5247
50.4838
50.4426
50.4009
50.3589
50.3165
50.2737
50.2307
50.1873
50.1436
50.0996
50.0554
50.0109
49.9661
49.9212
49.876
49.8306
49.785
49.7392
49.6933
49.6473
49.6011
49.5548
49.5084
49.462
49.4154
49.3689
49.3222
49.2756
49.2289
49.1823
49.1356
49.089
49.0425
48.996
48.9495
48.9032
48.857
48.8109
48.7649
48.7191
48.6734
48.6279
48.5825
48.5374
48.4925
48.4478
48.4033
48.3591
48.3151
48.2714
48.228
48.1849
48.1421
48.0996
48.0574
48.0156
47.9741
47.933
47.8923
47.8519
47.8119
47.7723
47.7331
47.6944
47.656
47.6181
47.5807
47.5437
47.5071
47.4711
47.4355
47.4003
47.3657
47.3316
47.2979
47.2648
47.2322
47.2001
47.1685
47.1375
47.107
47.077
47.0476
47.0187
46.9904
46.9626
46.9354
46.9088
46.8827
46.8572
46.8323
46.808
46.7842
46.761
46.7383
46.7163
46.6948
46.674
46.6537
46.634
46.6148
46.5963
46.5783
46.5609
46.5441
46.5279
46.5123
46.4972
46.4827
46.4688
46.4554
46.4426
46.4304
46.4188
46.4077
46.3971
46.3871
46.3777
46.3688
46.3605
46.3527
46.3454
46.3386
46.3324
46.3267
46.3215
46.3168
46.3126
46.309
46.3058
46.3031
46.3008
46.2991
46.2978
46.297
46.2966
46.2967
46.2973
46.2982
46.2996
46.3015
46.3037
46.3063
46.3094
46.3128
46.3167
46.3209
46.3254
46.3304
46.3357
46.3413
46.3473
46.3536
46.3603
46.3672
46.3745
46.382
46.3899
46.398
46.4065
46.4151
46.4241
46.4333
46.4427
46.4524
46.4623
46.4724
46.4827
46.4933
46.504
46.5149
46.526
46.5372
46.5486
46.5602
46.5719
46.5837
46.5957
46.6078
46.62
46.6323
46.6447
46.6572
46.6697
46.6824
46.6951
46.7078
46.7206
46.7334
46.7463
46.7592
46.7721
46.785
46.7979
46.8109
46.8238
46.8366
46.8495
46.8623
46.8751
46.8878
46.9005
46.9131
46.9257
46.9381
46.9505
46.9628
46.975
46.9871
46.9991
47.011
47.0228
47.0344
47.046
47.0573
47.0686
47.0797
47.0906
47.1014
47.112
47.1225
47.1327
47.1428
47.1528
47.1625
47.172
47.1814
47.1905
47.1995
47.2082
47.2167
47.225
47.2331
47.2409
47.2486
47.256
47.2631
47.2701
47.2767
47.2832
47.2894
47.2953
47.301
47.3065
47.3116
47.3166
47.3212
47.3256
47.3298
47.3336
47.3372
47.3406
47.3436
47.3464
47.3489
47.3511
47.3531
47.3548
47.3562
47.3573
47.3581
47.3587
47.359
51.7907
51.7894
51.7867
51.7828
51.7777
51.7717
51.7647
51.7569
51.7483
51.739
51.7288
51.7179
51.7063
51.6939
51.6806
51.6667
51.6519
51.6364
51.62
51.6029
51.5851
51.5664
51.547
51.5268
51.5058
51.4841
51.4617
51.4385
51.4146
51.3899
51.3645
51.3384
51.3116
51.2841
51.256
51.2271
51.1976
51.1674
51.1366
51.1052
51.0731
51.0404
51.0071
50.9732
50.9387
50.9037
50.8681
50.832
50.7953
50.7581
50.7205
50.6823
50.6436
50.6045
50.5649
50.5249
50.4844
50.4435
50.4023
50.3606
50.3186
50.2762
50.2334
50.1904
50.147
50.1033
50.0593
50.0151
49.9706
49.9258
49.8808
49.8356
49.7903
49.7447
49.6989
49.653
49.607
49.5608
49.5145
49.4681
49.4217
49.3751
49.3285
49.2819
49.2353
49.1886
49.142
49.0953
49.0487
49.0022
48.9557
48.9093
48.8629
48.8167
48.7706
48.7246
48.6788
48.6331
48.5876
48.5423
48.4971
48.4522
48.4075
48.3631
48.3189
48.2749
48.2312
48.1878
48.1447
48.1019
48.0594
48.0172
47.9754
47.9339
47.8928
47.8521
47.8117
47.7717
47.7321
47.693
47.6542
47.6159
47.578
47.5405
47.5035
47.467
47.4309
47.3953
47.3602
47.3256
47.2915
47.2578
47.2247
47.1921
47.16
47.1284
47.0974
47.0669
47.037
47.0076
46.9787
46.9504
46.9226
46.8954
46.8688
46.8428
46.8173
46.7924
46.768
46.7442
46.721
46.6984
46.6764
46.655
46.6341
46.6138
46.5941
46.575
46.5564
46.5385
46.5211
46.5043
46.4881
46.4725
46.4574
46.4429
46.429
46.4157
46.4029
46.3907
46.379
46.368
46.3574
46.3475
46.338
46.3292
46.3208
46.313
46.3057
46.299
46.2928
46.2871
46.2819
46.2772
46.2731
46.2694
46.2662
46.2635
46.2613
46.2596
46.2583
46.2575
46.2572
46.2573
46.2578
46.2588
46.2602
46.262
46.2643
46.2669
46.27
46.2734
46.2773
46.2815
46.2861
46.291
46.2963
46.302
46.308
46.3143
46.321
46.3279
46.3352
46.3428
46.3506
46.3588
46.3672
46.3759
46.3849
46.3941
46.4035
46.4132
46.4231
46.4332
46.4436
46.4541
46.4648
46.4757
46.4868
46.4981
46.5095
46.5211
46.5328
46.5446
46.5566
46.5687
46.5809
46.5932
46.6056
46.6181
46.6306
46.6433
46.656
46.6687
46.6815
46.6944
46.7072
46.7201
46.7331
46.746
46.7589
46.7718
46.7847
46.7976
46.8105
46.8233
46.8361
46.8488
46.8615
46.8741
46.8867
46.8991
46.9115
46.9238
46.9361
46.9482
46.9602
46.9721
46.9838
46.9955
47.007
47.0184
47.0296
47.0407
47.0517
47.0624
47.0731
47.0835
47.0938
47.1039
47.1138
47.1236
47.1331
47.1424
47.1516
47.1605
47.1693
47.1778
47.1861
47.1942
47.202
47.2097
47.2171
47.2242
47.2311
47.2378
47.2443
47.2505
47.2564
47.2621
47.2675
47.2727
47.2777
47.2823
47.2867
47.2908
47.2947
47.2983
47.3016
47.3047
47.3075
47.31
47.3122
47.3142
47.3158
47.3172
47.3184
47.3192
47.3198
47.32
51.7225
51.7212
51.7183
51.7144
51.7092
51.703
51.6959
51.688
51.6793
51.6698
51.6595
51.6484
51.6367
51.6241
51.6108
51.5967
51.5819
51.5663
51.5499
51.5328
51.5148
51.4961
51.4767
51.4565
51.4355
51.4138
51.3913
51.3681
51.3441
51.3195
51.2941
51.268
51.2412
51.2137
51.1855
51.1567
51.1272
51.097
51.0662
51.0347
51.0027
50.97
50.9367
50.9028
50.8684
50.8334
50.7978
50.7617
50.725
50.6879
50.6502
50.612
50.5734
50.5342
50.4947
50.4547
50.4142
50.3734
50.3321
50.2905
50.2484
50.2061
50.1634
50.1203
50.0769
50.0333
49.9893
49.9451
49.9006
49.8559
49.8109
49.7658
49.7204
49.6748
49.6291
49.5832
49.5372
49.491
49.4448
49.3984
49.352
49.3055
49.2589
49.2123
49.1657
49.1191
49.0724
49.0258
48.9792
48.9327
48.8862
48.8398
48.7935
48.7473
48.7013
48.6553
48.6095
48.5638
48.5184
48.4731
48.428
48.3831
48.3384
48.294
48.2498
48.2058
48.1622
48.1188
48.0757
48.0329
47.9905
47.9483
47.9065
47.8651
47.824
47.7832
47.7429
47.703
47.6634
47.6242
47.5855
47.5472
47.5093
47.4719
47.4349
47.3984
47.3624
47.3268
47.2917
47.2571
47.223
47.1894
47.1563
47.1237
47.0916
47.0601
47.0291
46.9986
46.9687
46.9393
46.9105
46.8822
46.8544
46.8273
46.8007
46.7746
46.7492
46.7243
46.6999
46.6762
46.653
46.6304
46.6084
46.587
46.5661
46.5459
46.5262
46.5071
46.4886
46.4706
46.4533
46.4365
46.4203
46.4047
46.3896
46.3752
46.3613
46.348
46.3352
46.323
46.3114
46.3003
46.2898
46.2798
46.2704
46.2616
46.2532
46.2455
46.2382
46.2315
46.2253
46.2196
46.2144
46.2098
46.2056
46.2019
46.1988
46.1961
46.1939
46.1922
46.1909
46.1901
46.1898
46.1899
46.1904
46.1914
46.1929
46.1947
46.1969
46.1996
46.2027
46.2061
46.21
46.2142
46.2188
46.2237
46.2291
46.2347
46.2407
46.247
46.2537
46.2607
46.2679
46.2755
46.2834
46.2915
46.3
46.3087
46.3176
46.3268
46.3363
46.346
46.3559
46.366
46.3763
46.3869
46.3976
46.4085
46.4196
46.4309
46.4423
46.4538
46.4655
46.4774
46.4894
46.5015
46.5137
46.526
46.5384
46.5508
46.5634
46.576
46.5887
46.6015
46.6143
46.6271
46.64
46.6529
46.6658
46.6787
46.6916
46.7046
46.7175
46.7303
46.7432
46.756
46.7688
46.7815
46.7942
46.8068
46.8194
46.8318
46.8442
46.8565
46.8687
46.8808
46.8928
46.9047
46.9165
46.9281
46.9397
46.951
46.9623
46.9734
46.9843
46.9951
47.0057
47.0162
47.0264
47.0365
47.0464
47.0562
47.0657
47.075
47.0842
47.0931
47.1019
47.1104
47.1187
47.1267
47.1346
47.1422
47.1496
47.1568
47.1637
47.1704
47.1768
47.183
47.189
47.1947
47.2001
47.2053
47.2102
47.2149
47.2193
47.2234
47.2273
47.2308
47.2342
47.2372
47.24
47.2425
47.2447
47.2467
47.2484
47.2498
47.2509
47.2517
47.2523
47.2526
51.6767
51.6755
51.6727
51.6688
51.6637
51.6577
51.6507
51.6428
51.6341
51.6246
51.6143
51.6033
51.5915
51.5789
51.5656
51.5515
51.5366
51.521
51.5045
51.4874
51.4694
51.4507
51.4312
51.4109
51.3899
51.3682
51.3457
51.3224
51.2985
51.2738
51.2484
51.2223
51.1954
51.1679
51.1397
51.1109
51.0813
51.0512
51.0203
50.9889
50.9568
50.9241
50.8908
50.8569
50.8225
50.7874
50.7518
50.7157
50.6791
50.6419
50.6042
50.566
50.5274
50.4882
50.4487
50.4086
50.3682
50.3273
50.2861
50.2444
50.2024
50.16
50.1173
50.0742
50.0309
49.9872
49.9432
49.899
49.8545
49.8098
49.7648
49.7196
49.6742
49.6287
49.583
49.5371
49.491
49.4449
49.3986
49.3522
49.3058
49.2593
49.2127
49.1661
49.1195
49.0728
49.0262
48.9796
48.933
48.8865
48.84
48.7936
48.7473
48.7011
48.655
48.6091
48.5632
48.5176
48.4721
48.4268
48.3817
48.3368
48.2921
48.2477
48.2035
48.1596
48.1159
48.0725
48.0294
47.9867
47.9442
47.902
47.8602
47.8188
47.7777
47.737
47.6966
47.6567
47.6171
47.578
47.5393
47.501
47.4631
47.4257
47.3887
47.3522
47.3161
47.2806
47.2455
47.2109
47.1768
47.1432
47.1101
47.0775
47.0454
47.0139
46.9829
46.9524
46.9225
46.8931
46.8643
46.836
46.8083
46.7811
46.7545
46.7285
46.7031
46.6782
46.6538
46.6301
46.6069
46.5844
46.5624
46.5409
46.5201
46.4998
46.4802
46.4611
46.4426
46.4246
46.4073
46.3905
46.3744
46.3587
46.3437
46.3293
46.3154
46.3021
46.2893
46.2771
46.2655
46.2545
46.244
46.234
46.2246
46.2158
46.2075
46.1997
46.1924
46.1857
46.1795
46.1739
46.1687
46.1641
46.1599
46.1563
46.1531
46.1505
46.1483
46.1466
46.1453
46.1445
46.1442
46.1443
46.1449
46.1459
46.1473
46.1492
46.1515
46.1541
46.1572
46.1607
46.1645
46.1688
46.1734
46.1783
46.1837
46.1893
46.1953
46.2017
46.2084
46.2153
46.2226
46.2302
46.2381
46.2463
46.2547
46.2634
46.2724
46.2816
46.2911
46.3007
46.3107
46.3208
46.3311
46.3417
46.3524
46.3634
46.3745
46.3857
46.3972
46.4087
46.4204
46.4323
46.4443
46.4564
46.4686
46.4809
46.4933
46.5058
46.5184
46.531
46.5437
46.5565
46.5693
46.5821
46.595
46.6079
46.6208
46.6338
46.6467
46.6596
46.6725
46.6854
46.6983
46.7111
46.7239
46.7366
46.7493
46.7619
46.7745
46.787
46.7994
46.8117
46.8239
46.836
46.848
46.8599
46.8717
46.8833
46.8948
46.9062
46.9175
46.9286
46.9395
46.9503
46.9609
46.9714
46.9816
46.9917
47.0017
47.0114
47.0209
47.0303
47.0394
47.0484
47.0571
47.0656
47.0739
47.082
47.0898
47.0975
47.1049
47.112
47.119
47.1256
47.1321
47.1383
47.1442
47.1499
47.1554
47.1605
47.1655
47.1701
47.1745
47.1787
47.1825
47.1861
47.1894
47.1925
47.1953
47.1978
47.2
47.202
47.2036
47.205
47.2062
47.207
47.2076
47.2078
51.6121
51.6108
51.6081
51.6042
51.5991
51.593
51.5859
51.578
51.5692
51.5597
51.5493
51.5382
51.5263
51.5137
51.5003
51.4861
51.4711
51.4554
51.439
51.4217
51.4037
51.3849
51.3654
51.3451
51.3241
51.3023
51.2798
51.2565
51.2325
51.2078
51.1824
51.1563
51.1294
51.1019
51.0737
51.0449
51.0153
50.9851
50.9543
50.9228
50.8907
50.858
50.8247
50.7909
50.7564
50.7214
50.6858
50.6496
50.613
50.5758
50.5381
50.4999
50.4613
50.4222
50.3826
50.3426
50.3021
50.2613
50.22
50.1784
50.1363
50.094
50.0512
50.0082
49.9648
49.9212
49.8772
49.833
49.7885
49.7438
49.6988
49.6536
49.6083
49.5627
49.517
49.4711
49.4251
49.3789
49.3327
49.2863
49.2399
49.1934
49.1468
49.1002
49.0536
49.007
48.9603
48.9137
48.8672
48.8206
48.7742
48.7278
48.6815
48.6353
48.5892
48.5433
48.4975
48.4518
48.4064
48.3611
48.316
48.2711
48.2264
48.182
48.1378
48.0939
48.0502
48.0069
47.9638
47.921
47.8786
47.8364
47.7947
47.7532
47.7121
47.6714
47.6311
47.5912
47.5516
47.5125
47.4738
47.4355
47.3976
47.3602
47.3233
47.2868
47.2507
47.2152
47.1801
47.1455
47.1114
47.0778
47.0448
47.0122
46.9801
46.9486
46.9176
46.8872
46.8573
46.8279
46.7991
46.7708
46.7431
46.716
46.6894
46.6634
46.6379
46.6131
46.5888
46.565
46.5419
46.5193
46.4973
46.4759
46.4551
46.4349
46.4152
46.3961
46.3776
46.3597
46.3424
46.3256
46.3095
46.2939
46.2789
46.2644
46.2506
46.2373
46.2245
46.2124
46.2008
46.1897
46.1792
46.1693
46.1599
46.1511
46.1428
46.135
46.1278
46.1211
46.1149
46.1093
46.1041
46.0995
46.0954
46.0917
46.0886
46.0859
46.0838
46.0821
46.0808
46.0801
46.0798
46.0799
46.0805
46.0815
46.0829
46.0848
46.0871
46.0898
46.0929
46.0963
46.1002
46.1045
46.1091
46.114
46.1194
46.1251
46.1311
46.1374
46.1441
46.1511
46.1584
46.166
46.1739
46.1821
46.1905
46.1992
46.2082
46.2174
46.2269
46.2366
46.2465
46.2567
46.267
46.2776
46.2883
46.2993
46.3104
46.3216
46.3331
46.3446
46.3564
46.3682
46.3802
46.3923
46.4045
46.4169
46.4293
46.4418
46.4544
46.467
46.4797
46.4925
46.5053
46.5181
46.531
46.5439
46.5568
46.5698
46.5827
46.5956
46.6085
46.6214
46.6343
46.6471
46.6599
46.6726
46.6853
46.698
46.7105
46.723
46.7354
46.7477
46.7599
46.772
46.784
46.7959
46.8077
46.8193
46.8309
46.8422
46.8535
46.8646
46.8755
46.8863
46.8969
46.9074
46.9177
46.9278
46.9377
46.9474
46.9569
46.9663
46.9754
46.9844
46.9931
47.0016
47.0099
47.018
47.0259
47.0335
47.0409
47.048
47.055
47.0617
47.0681
47.0743
47.0802
47.0859
47.0914
47.0965
47.1015
47.1061
47.1105
47.1147
47.1185
47.1221
47.1255
47.1285
47.1313
47.1338
47.136
47.138
47.1397
47.1411
47.1422
47.143
47.1436
47.1439
51.5626
51.5613
51.5586
51.5548
51.5498
51.5438
51.5368
51.529
51.5203
51.5108
51.5004
51.4893
51.4774
51.4648
51.4513
51.4371
51.4221
51.4064
51.3899
51.3726
51.3546
51.3358
51.3162
51.2959
51.2748
51.253
51.2304
51.2071
51.1831
51.1584
51.1329
51.1068
51.0799
51.0524
51.0242
50.9953
50.9657
50.9355
50.9046
50.8732
50.841
50.8083
50.775
50.7411
50.7066
50.6716
50.636
50.5998
50.5631
50.5259
50.4882
50.4501
50.4114
50.3722
50.3326
50.2926
50.2522
50.2113
50.17
50.1283
50.0863
50.0439
50.0012
49.9581
49.9147
49.8711
49.8271
49.7829
49.7384
49.6936
49.6486
49.6035
49.5581
49.5125
49.4668
49.4209
49.3748
49.3287
49.2824
49.236
49.1896
49.143
49.0965
49.0499
49.0032
48.9566
48.91
48.8633
48.8168
48.7702
48.7237
48.6773
48.631
48.5848
48.5387
48.4928
48.447
48.4013
48.3558
48.3105
48.2654
48.2205
48.1759
48.1314
48.0872
48.0433
47.9997
47.9563
47.9132
47.8704
47.828
47.7858
47.744
47.7026
47.6615
47.6208
47.5805
47.5405
47.501
47.4618
47.4231
47.3848
47.347
47.3096
47.2726
47.2361
47.2001
47.1645
47.1294
47.0948
47.0608
47.0272
46.9941
46.9615
46.9295
46.898
46.867
46.8365
46.8066
46.7773
46.7485
46.7202
46.6925
46.6654
46.6388
46.6128
46.5873
46.5625
46.5382
46.5145
46.4913
46.4688
46.4468
46.4254
46.4046
46.3843
46.3647
46.3456
46.3271
46.3092
46.2919
46.2752
46.259
46.2434
46.2284
46.214
46.2001
46.1869
46.1741
46.162
46.1504
46.1394
46.1289
46.119
46.1096
46.1008
46.0925
46.0848
46.0776
46.0709
46.0647
46.0591
46.0539
46.0493
46.0452
46.0416
46.0385
46.0358
46.0337
46.032
46.0308
46.03
46.0297
46.0299
46.0305
46.0315
46.033
46.0349
46.0371
46.0399
46.043
46.0465
46.0503
46.0546
46.0592
46.0642
46.0696
46.0753
46.0813
46.0877
46.0944
46.1014
46.1087
46.1163
46.1242
46.1324
46.1409
46.1496
46.1586
46.1678
46.1773
46.187
46.197
46.2071
46.2175
46.2281
46.2388
46.2498
46.2609
46.2722
46.2836
46.2952
46.307
46.3188
46.3308
46.343
46.3552
46.3675
46.3799
46.3924
46.405
46.4177
46.4304
46.4432
46.456
46.4689
46.4818
46.4947
46.5076
46.5206
46.5335
46.5464
46.5594
46.5723
46.5851
46.598
46.6108
46.6235
46.6362
46.6488
46.6614
46.6739
46.6863
46.6986
46.7108
46.7229
46.735
46.7469
46.7586
46.7703
46.7818
46.7932
46.8045
46.8156
46.8265
46.8373
46.8479
46.8584
46.8687
46.8788
46.8887
46.8984
46.908
46.9173
46.9265
46.9354
46.9442
46.9527
46.961
46.9691
46.9769
46.9846
46.992
46.9991
47.0061
47.0128
47.0192
47.0254
47.0313
47.037
47.0425
47.0477
47.0526
47.0572
47.0616
47.0658
47.0696
47.0732
47.0766
47.0796
47.0824
47.0849
47.0872
47.0891
47.0908
47.0922
47.0933
47.0941
47.0947
47.095
51.5004
51.4991
51.4965
51.4927
51.4877
51.4817
51.4748
51.4669
51.4582
51.4486
51.4382
51.4271
51.4151
51.4024
51.3889
51.3747
51.3596
51.3438
51.3273
51.31
51.2919
51.273
51.2534
51.2331
51.212
51.1901
51.1675
51.1442
51.1201
51.0954
51.0699
51.0437
51.0169
50.9893
50.961
50.9321
50.9026
50.8723
50.8415
50.81
50.7778
50.7451
50.7118
50.6779
50.6434
50.6083
50.5727
50.5365
50.4998
50.4626
50.4249
50.3867
50.348
50.3089
50.2693
50.2292
50.1887
50.1479
50.1066
50.0649
50.0229
49.9805
49.9377
49.8947
49.8513
49.8076
49.7636
49.7193
49.6748
49.6301
49.5851
49.5399
49.4945
49.4489
49.4032
49.3573
49.3113
49.2651
49.2188
49.1724
49.126
49.0794
49.0329
48.9863
48.9396
48.893
48.8463
48.7997
48.7531
48.7066
48.6601
48.6137
48.5674
48.5212
48.4751
48.4291
48.3833
48.3376
48.2922
48.2469
48.2017
48.1569
48.1122
48.0677
48.0236
47.9796
47.936
47.8926
47.8495
47.8067
47.7643
47.7221
47.6803
47.6389
47.5978
47.5571
47.5168
47.4768
47.4373
47.3982
47.3594
47.3211
47.2833
47.2459
47.2089
47.1724
47.1364
47.1009
47.0658
47.0312
46.9971
46.9635
46.9305
46.8979
46.8659
46.8344
46.8034
46.773
46.7431
46.7137
46.6849
46.6566
46.629
46.6018
46.5753
46.5493
46.5238
46.499
46.4747
46.451
46.4279
46.4053
46.3833
46.362
46.3411
46.3209
46.3013
46.2822
46.2638
46.2459
46.2286
46.2119
46.1957
46.1801
46.1652
46.1507
46.1369
46.1236
46.1109