/*--------------------------------*- C++ -*----------------------------------*\
| =========                 |                                                 |
| \\      /  F ield         | OpenFOAM: The Open Source CFD Toolbox           |
|  \\    /   O peration     | Version:  2212                                  |
|   \\  /    A nd           | Website:  www.openfoam.com                      |
|    \\/     M anipulation  |                                                 |
\*---------------------------------------------------------------------------*/
FoamFile
{
    version     2.0;
    format      ascii;
    arch        "LSB;label=32;scalar=64";
    class       volScalarField;
    location    "1010";
    object      p_rgh;
}
// * * * * * * * * * * * * * * * * * * * * * * * * * * * * * * * * * * * * * //

dimensions      [1 -1 -2 0 0 0 0];

internalField   nonuniform List<scalar> 
204800
(
52.1418
52.1415
52.1401
52.1383
52.1355
52.1319
52.1272
52.1215
52.1147
52.1068
52.0978
52.0879
52.0769
52.0651
52.0523
52.0387
52.0242
52.0089
51.9927
51.9758
51.958
51.9394
51.9201
51.8999
51.879
51.8573
51.8348
51.8116
51.7877
51.763
51.7375
51.7114
51.6845
51.657
51.6287
51.5998
51.5702
51.5399
51.509
51.4774
51.4452
51.4124
51.379
51.345
51.3104
51.2752
51.2395
51.2032
51.1664
51.1291
51.0912
51.0529
51.0141
50.9748
50.935
50.8948
50.8542
50.8131
50.7717
50.7299
50.6876
50.6451
50.6021
50.5589
50.5153
50.4714
50.4272
50.3828
50.3381
50.2931
50.2479
50.2025
50.1569
50.1111
50.0651
50.019
49.9727
49.9263
49.8798
49.8332
49.7865
49.7398
49.6929
49.6461
49.5992
49.5523
49.5054
49.4585
49.4117
49.3649
49.3181
49.2715
49.2249
49.1784
49.1321
49.0858
49.0397
48.9938
48.948
48.9025
48.8571
48.8119
48.7669
48.7222
48.6777
48.6335
48.5895
48.5459
48.5025
48.4594
48.4167
48.3742
48.3321
48.2904
48.249
48.208
48.1673
48.1271
48.0872
48.0478
48.0087
47.9701
47.932
47.8942
47.8569
47.8201
47.7838
47.7479
47.7125
47.6776
47.6432
47.6093
47.5759
47.543
47.5106
47.4788
47.4475
47.4167
47.3864
47.3568
47.3276
47.299
47.271
47.2435
47.2166
47.1903
47.1645
47.1393
47.1147
47.0906
47.0672
47.0443
47.022
47.0002
46.9791
46.9585
46.9385
46.9191
46.9003
46.8821
46.8644
46.8474
46.8309
46.815
46.7996
46.7849
46.7707
46.7571
46.744
46.7316
46.7197
46.7083
46.6975
46.6873
46.6776
46.6684
46.6598
46.6518
46.6442
46.6372
46.6308
46.6248
46.6194
46.6144
46.61
46.6061
46.6027
46.5997
46.5972
46.5953
46.5937
46.5927
46.5921
46.592
46.5923
46.593
46.5942
46.5958
46.5978
46.6002
46.603
46.6062
46.6098
46.6138
46.6181
46.6229
46.6279
46.6334
46.6391
46.6452
46.6517
46.6584
46.6655
46.6728
46.6805
46.6884
46.6966
46.7051
46.7138
46.7228
46.7321
46.7416
46.7513
46.7612
46.7713
46.7817
46.7922
46.8029
46.8138
46.8249
46.8361
46.8475
46.859
46.8707
46.8824
46.8944
46.9064
46.9185
46.9307
46.9431
46.9554
46.9679
46.9804
46.993
47.0057
47.0184
47.0311
47.0438
47.0566
47.0693
47.0821
47.0949
47.1076
47.1204
47.1331
47.1458
47.1584
47.171
47.1835
47.196
47.2084
47.2208
47.2331
47.2452
47.2573
47.2693
47.2812
47.293
47.3046
47.3162
47.3276
47.3388
47.35
47.361
47.3718
47.3825
47.393
47.4034
47.4136
47.4236
47.4334
47.443
47.4525
47.4618
47.4708
47.4797
47.4883
47.4968
47.505
47.513
47.5208
47.5284
47.5357
47.5428
47.5497
47.5563
47.5627
47.5688
47.5747
47.5804
47.5858
47.5909
47.5958
47.6004
47.6048
47.6089
47.6127
47.6163
47.6196
47.6226
47.6254
47.6279
47.6301
47.632
47.6337
47.6351
47.6362
47.637
47.6376
47.6378
52.0509
52.0497
52.0474
52.0442
52.0399
52.0349
52.0288
52.022
52.0142
52.0056
51.9962
51.9859
51.9747
51.9627
51.9498
51.9361
51.9216
51.9063
51.8901
51.8732
51.8554
51.8369
51.8175
51.7974
51.7765
51.7549
51.7324
51.7093
51.6853
51.6607
51.6353
51.6092
51.5824
51.5549
51.5267
51.4978
51.4682
51.438
51.4071
51.3756
51.3435
51.3108
51.2774
51.2435
51.2089
51.1738
51.1382
51.1019
51.0652
51.0279
50.9902
50.9519
50.9131
50.8739
50.8342
50.7941
50.7535
50.7126
50.6712
50.6294
50.5873
50.5448
50.5019
50.4588
50.4153
50.3715
50.3274
50.283
50.2384
50.1935
50.1484
50.1031
50.0576
50.0118
49.966
49.9199
49.8737
49.8274
49.781
49.7345
49.6879
49.6412
49.5944
49.5477
49.5009
49.4541
49.4073
49.3605
49.3137
49.267
49.2203
49.1738
49.1273
49.0809
49.0346
48.9884
48.9424
48.8966
48.8509
48.8054
48.7601
48.715
48.6701
48.6255
48.5811
48.537
48.4931
48.4495
48.4062
48.3632
48.3205
48.2782
48.2361
48.1945
48.1532
48.1122
48.0717
48.0315
47.9917
47.9523
47.9134
47.8748
47.8367
47.7991
47.7619
47.7251
47.6888
47.653
47.6177
47.5828
47.5485
47.5146
47.4813
47.4485
47.4162
47.3844
47.3531
47.3224
47.2922
47.2626
47.2335
47.205
47.177
47.1496
47.1227
47.0964
47.0707
47.0456
47.021
46.997
46.9735
46.9507
46.9284
46.9067
46.8856
46.8651
46.8452
46.8258
46.807
46.7888
46.7712
46.7542
46.7377
46.7218
46.7065
46.6918
46.6777
46.6641
46.651
46.6386
46.6267
46.6154
46.6046
46.5944
46.5847
46.5756
46.567
46.5589
46.5514
46.5444
46.538
46.532
46.5266
46.5217
46.5173
46.5134
46.5099
46.507
46.5045
46.5026
46.501
46.5
46.4994
46.4993
46.4996
46.5003
46.5015
46.503
46.5051
46.5075
46.5103
46.5135
46.5171
46.5211
46.5254
46.5301
46.5352
46.5406
46.5464
46.5525
46.5589
46.5656
46.5726
46.58
46.5876
46.5955
46.6037
46.6122
46.6209
46.6299
46.6391
46.6486
46.6583
46.6682
46.6783
46.6886
46.6991
46.7098
46.7207
46.7318
46.743
46.7543
46.7658
46.7775
46.7892
46.8011
46.8131
46.8252
46.8374
46.8497
46.8621
46.8745
46.887
46.8996
46.9122
46.9249
46.9376
46.9503
46.963
46.9758
46.9885
47.0013
47.014
47.0267
47.0394
47.0521
47.0647
47.0773
47.0898
47.1022
47.1146
47.1269
47.1392
47.1513
47.1634
47.1754
47.1872
47.199
47.2106
47.2221
47.2335
47.2448
47.2559
47.2669
47.2777
47.2883
47.2988
47.3092
47.3194
47.3293
47.3392
47.3488
47.3582
47.3675
47.3765
47.3854
47.394
47.4024
47.4106
47.4186
47.4264
47.434
47.4413
47.4484
47.4552
47.4618
47.4682
47.4743
47.4802
47.4859
47.4913
47.4964
47.5013
47.5059
47.5102
47.5143
47.5181
47.5217
47.525
47.528
47.5308
47.5333
47.5355
47.5374
47.5391
47.5405
47.5416
47.5424
47.5429
47.5432
52.0315
52.0305
52.0282
52.025
52.0207
52.0156
52.0096
52.0027
51.9949
51.9863
51.9768
51.9665
51.9553
51.9433
51.9304
51.9167
51.9022
51.8868
51.8707
51.8537
51.8359
51.8174
51.798
51.7779
51.757
51.7353
51.7129
51.6897
51.6658
51.6411
51.6157
51.5896
51.5628
51.5353
51.5071
51.4782
51.4486
51.4184
51.3876
51.356
51.3239
51.2912
51.2578
51.2239
51.1893
51.1542
51.1186
51.0824
51.0456
51.0084
50.9706
50.9323
50.8936
50.8544
50.8147
50.7746
50.734
50.693
50.6517
50.6099
50.5678
50.5253
50.4824
50.4393
50.3958
50.352
50.3079
50.2635
50.2189
50.174
50.1289
50.0836
50.0381
49.9924
49.9465
49.9005
49.8543
49.808
49.7616
49.715
49.6684
49.6218
49.575
49.5283
49.4815
49.4347
49.3879
49.3411
49.2943
49.2476
49.201
49.1544
49.1079
49.0615
49.0153
48.9691
48.9231
48.8773
48.8316
48.7861
48.7408
48.6957
48.6509
48.6062
48.5618
48.5177
48.4738
48.4302
48.3869
48.344
48.3013
48.2589
48.2169
48.1753
48.1339
48.093
48.0525
48.0123
47.9725
47.9331
47.8942
47.8557
47.8176
47.7799
47.7427
47.706
47.6697
47.6339
47.5986
47.5637
47.5294
47.4955
47.4622
47.4294
47.3971
47.3653
47.3341
47.3034
47.2732
47.2435
47.2145
47.1859
47.158
47.1306
47.1037
47.0774
47.0517
47.0266
47.002
46.978
46.9546
46.9317
46.9095
46.8878
46.8667
46.8462
46.8262
46.8069
46.7881
46.7699
46.7523
46.7353
46.7188
46.7029
46.6876
46.6729
46.6588
46.6452
46.6322
46.6197
46.6078
46.5965
46.5858
46.5755
46.5659
46.5568
46.5482
46.5401
46.5326
46.5256
46.5192
46.5132
46.5078
46.5029
46.4985
46.4946
46.4912
46.4882
46.4858
46.4838
46.4823
46.4812
46.4807
46.4805
46.4808
46.4816
46.4827
46.4843
46.4863
46.4888
46.4916
46.4948
46.4984
46.5024
46.5067
46.5114
46.5165
46.5219
46.5277
46.5338
46.5402
46.5469
46.554
46.5613
46.569
46.5769
46.5851
46.5936
46.6023
46.6113
46.6205
46.6299
46.6396
46.6495
46.6597
46.67
46.6805
46.6912
46.7021
46.7131
46.7243
46.7357
46.7472
46.7588
46.7706
46.7825
46.7945
46.8066
46.8188
46.8311
46.8435
46.8559
46.8684
46.881
46.8936
46.9063
46.919
46.9317
46.9444
46.9572
46.9699
46.9827
46.9954
47.0081
47.0208
47.0335
47.0461
47.0586
47.0712
47.0836
47.096
47.1083
47.1206
47.1327
47.1448
47.1568
47.1686
47.1804
47.192
47.2035
47.2149
47.2262
47.2373
47.2483
47.2591
47.2697
47.2803
47.2906
47.3008
47.3107
47.3206
47.3302
47.3396
47.3489
47.3579
47.3668
47.3754
47.3838
47.392
47.4
47.4078
47.4154
47.4227
47.4298
47.4366
47.4432
47.4496
47.4557
47.4616
47.4673
47.4727
47.4778
47.4827
47.4873
47.4916
47.4957
47.4995
47.5031
47.5064
47.5094
47.5122
47.5147
47.5169
47.5188
47.5205
47.5218
47.523
47.5238
47.5243
47.5246
51.9508
51.9495
51.9468
51.943
51.938
51.9322
51.9254
51.9179
51.9096
51.9005
51.8907
51.88
51.8686
51.8564
51.8434
51.8296
51.815
51.7996
51.7834
51.7664
51.7486
51.73
51.7107
51.6906
51.6697
51.648
51.6256
51.6024
51.5785
51.5539
51.5285
51.5024
51.4756
51.4482
51.42
51.3911
51.3616
51.3314
51.3006
51.2691
51.2371
51.2043
51.171
51.1371
51.1026
51.0676
51.032
50.9958
50.9591
50.9219
50.8842
50.846
50.8073
50.7681
50.7285
50.6884
50.6479
50.607
50.5656
50.5239
50.4819
50.4394
50.3966
50.3535
50.3101
50.2663
50.2223
50.178
50.1334
50.0886
50.0436
49.9983
49.9529
49.9072
49.8614
49.8154
49.7693
49.7231
49.6767
49.6302
49.5837
49.5371
49.4904
49.4437
49.397
49.3502
49.3035
49.2568
49.2101
49.1634
49.1169
49.0703
49.0239
48.9776
48.9314
48.8853
48.8394
48.7936
48.748
48.7026
48.6573
48.6123
48.5675
48.5229
48.4786
48.4345
48.3907
48.3472
48.3039
48.261
48.2184
48.1761
48.1341
48.0925
48.0513
48.0104
47.9699
47.9298
47.89
47.8507
47.8118
47.7734
47.7353
47.6977
47.6606
47.6239
47.5876
47.5519
47.5166
47.4818
47.4475
47.4137
47.3805
47.3477
47.3154
47.2837
47.2525
47.2218
47.1917
47.1621
47.1331
47.1046
47.0766
47.0493
47.0225
46.9962
46.9705
46.9454
46.9209
46.8969
46.8735
46.8507
46.8285
46.8068
46.7858
46.7653
46.7454
46.726
46.7073
46.6891
46.6716
46.6546
46.6381
46.6223
46.607
46.5923
46.5782
46.5646
46.5516
46.5392
46.5273
46.516
46.5053
46.4951
46.4854
46.4763
46.4678
46.4597
46.4522
46.4453
46.4388
46.4329
46.4275
46.4226
46.4182
46.4143
46.4109
46.4079
46.4055
46.4035
46.402
46.401
46.4004
46.4002
46.4006
46.4013
46.4025
46.4041
46.4061
46.4085
46.4113
46.4145
46.4181
46.4221
46.4264
46.4312
46.4362
46.4416
46.4474
46.4535
46.4599
46.4666
46.4737
46.481
46.4886
46.4965
46.5047
46.5132
46.5219
46.5309
46.5401
46.5496
46.5592
46.5691
46.5792
46.5895
46.6
46.6107
46.6216
46.6326
46.6438
46.6552
46.6667
46.6783
46.6901
46.7019
46.7139
46.726
46.7382
46.7505
46.7628
46.7753
46.7878
46.8003
46.8129
46.8255
46.8382
46.8509
46.8636
46.8764
46.8891
46.9018
46.9146
46.9273
46.9399
46.9526
46.9652
46.9777
46.9902
47.0027
47.0151
47.0274
47.0396
47.0517
47.0638
47.0757
47.0876
47.0993
47.1109
47.1224
47.1338
47.145
47.1561
47.1671
47.1779
47.1886
47.199
47.2094
47.2195
47.2295
47.2393
47.2489
47.2583
47.2676
47.2766
47.2854
47.2941
47.3025
47.3107
47.3187
47.3264
47.334
47.3413
47.3484
47.3552
47.3618
47.3682
47.3743
47.3802
47.3858
47.3912
47.3963
47.4012
47.4058
47.4101
47.4142
47.418
47.4216
47.4249
47.4279
47.4307
47.4331
47.4353
47.4373
47.4389
47.4403
47.4414
47.4423
47.4428
47.4431
51.919
51.9178
51.9151
51.9114
51.9065
51.9007
51.894
51.8865
51.8782
51.8691
51.8592
51.8486
51.8371
51.8249
51.8118
51.798
51.7834
51.7679
51.7517
51.7347
51.7169
51.6983
51.6789
51.6587
51.6378
51.6162
51.5937
51.5705
51.5466
51.522
51.4966
51.4705
51.4437
51.4162
51.3881
51.3592
51.3297
51.2995
51.2687
51.2372
51.2051
51.1724
51.1391
51.1052
51.0707
51.0356
51
50.9639
50.9272
50.89
50.8522
50.814
50.7753
50.7361
50.6965
50.6565
50.616
50.575
50.5337
50.492
50.4499
50.4075
50.3647
50.3216
50.2782
50.2344
50.1904
50.1461
50.1015
50.0567
50.0117
49.9665
49.921
49.8754
49.8295
49.7836
49.7375
49.6912
49.6449
49.5984
49.5519
49.5053
49.4586
49.4119
49.3652
49.3184
49.2717
49.225
49.1783
49.1317
49.0851
49.0386
48.9922
48.9458
48.8996
48.8536
48.8076
48.7619
48.7163
48.6708
48.6256
48.5806
48.5358
48.4912
48.4469
48.4028
48.359
48.3155
48.2723
48.2293
48.1867
48.1445
48.1025
48.0609
48.0197
47.9788
47.9383
47.8982
47.8585
47.8192
47.7803
47.7418
47.7038
47.6662
47.629
47.5924
47.5561
47.5204
47.4851
47.4503
47.4161
47.3823
47.349
47.3162
47.284
47.2523
47.2211
47.1904
47.1603
47.1307
47.1017
47.0732
47.0453
47.0179
46.9911
46.9649
46.9392
46.9141
46.8896
46.8656
46.8422
46.8194
46.7972
46.7756
46.7545
46.734
46.7141
46.6948
46.6761
46.6579
46.6403
46.6234
46.6069
46.5911
46.5758
46.5611
46.547
46.5335
46.5205
46.5081
46.4962
46.4849
46.4742
46.464
46.4543
46.4452
46.4367
46.4287
46.4212
46.4142
46.4078
46.4019
46.3965
46.3916
46.3872
46.3833
46.3799
46.377
46.3745
46.3726
46.3711
46.37
46.3694
46.3693
46.3696
46.3704
46.3716
46.3732
46.3752
46.3776
46.3804
46.3837
46.3873
46.3912
46.3956
46.4003
46.4054
46.4108
46.4166
46.4227
46.4291
46.4358
46.4429
46.4502
46.4578
46.4658
46.474
46.4824
46.4912
46.5001
46.5094
46.5188
46.5285
46.5384
46.5485
46.5588
46.5693
46.58
46.5909
46.6019
46.6131
46.6245
46.636
46.6476
46.6594
46.6712
46.6832
46.6953
46.7075
46.7198
46.7322
46.7446
46.7571
46.7697
46.7823
46.7949
46.8076
46.8203
46.833
46.8457
46.8585
46.8712
46.8839
46.8966
46.9093
46.9219
46.9345
46.9471
46.9596
46.9721
46.9844
46.9967
47.009
47.0211
47.0332
47.0451
47.057
47.0687
47.0803
47.0918
47.1032
47.1144
47.1255
47.1365
47.1473
47.158
47.1684
47.1788
47.1889
47.1989
47.2087
47.2183
47.2277
47.237
47.246
47.2548
47.2635
47.2719
47.2801
47.2881
47.2958
47.3034
47.3107
47.3178
47.3246
47.3312
47.3376
47.3437
47.3496
47.3552
47.3606
47.3657
47.3706
47.3752
47.3795
47.3836
47.3875
47.391
47.3943
47.3973
47.4001
47.4025
47.4048
47.4067
47.4083
47.4097
47.4108
47.4117
47.4122
47.4125
51.8456
51.8443
51.8414
51.8375
51.8323
51.8262
51.8191
51.8113
51.8027
51.7933
51.7832
51.7723
51.7607
51.7483
51.7351
51.7212
51.7065
51.691
51.6747
51.6576
51.6398
51.6212
51.6018
51.5816
51.5607
51.539
51.5166
51.4934
51.4695
51.4448
51.4195
51.3934
51.3666
51.3391
51.311
51.2821
51.2526
51.2225
51.1916
51.1602
51.1281
51.0954
51.0621
51.0283
50.9938
50.9588
50.9232
50.8871
50.8504
50.8132
50.7755
50.7373
50.6987
50.6595
50.6199
50.5799
50.5394
50.4985
50.4573
50.4156
50.3736
50.3312
50.2884
50.2453
50.2019
50.1582
50.1142
50.07
50.0255
49.9807
49.9357
49.8905
49.8451
49.7995
49.7537
49.7078
49.6617
49.6155
49.5692
49.5228
49.4763
49.4297
49.3831
49.3364
49.2897
49.243
49.1963
49.1497
49.103
49.0564
49.0099
48.9634
48.917
48.8708
48.8246
48.7786
48.7327
48.687
48.6414
48.596
48.5508
48.5058
48.4611
48.4166
48.3723
48.3282
48.2845
48.241
48.1978
48.1549
48.1124
48.0701
48.0282
47.9866
47.9454
47.9046
47.8642
47.8241
47.7844
47.7451
47.7063
47.6679
47.6299
47.5923
47.5552
47.5185
47.4824
47.4467
47.4114
47.3767
47.3424
47.3087
47.2754
47.2427
47.2105
47.1788
47.1476
47.117
47.0869
47.0574
47.0284
46.9999
46.972
46.9447
46.9179
46.8917
46.8661
46.841
46.8165
46.7926
46.7692
46.7464
46.7242
46.7026
46.6816
46.6611
46.6413
46.622
46.6033
46.5851
46.5676
46.5506
46.5342
46.5184
46.5031
46.4885
46.4744
46.4608
46.4479
46.4355
46.4236
46.4123
46.4016
46.3914
46.3818
46.3727
46.3642
46.3562
46.3487
46.3418
46.3353
46.3294
46.324
46.3192
46.3148
46.3109
46.3075
46.3046
46.3022
46.3002
46.2987
46.2977
46.2971
46.297
46.2973
46.2981
46.2993
46.3009
46.3029
46.3053
46.3081
46.3114
46.315
46.319
46.3233
46.328
46.3331
46.3385
46.3443
46.3504
46.3568
46.3635
46.3706
46.3779
46.3856
46.3935
46.4017
46.4101
46.4189
46.4278
46.437
46.4465
46.4562
46.4661
46.4762
46.4865
46.497
46.5077
46.5185
46.5296
46.5408
46.5521
46.5636
46.5752
46.587
46.5988
46.6108
46.6229
46.6351
46.6474
46.6597
46.6722
46.6846
46.6972
46.7098
46.7224
46.7351
46.7478
46.7605
46.7732
46.7859
46.7987
46.8114
46.8241
46.8367
46.8494
46.862
46.8745
46.887
46.8994
46.9118
46.9241
46.9363
46.9485
46.9605
46.9725
46.9843
46.996
47.0076
47.0191
47.0305
47.0417
47.0528
47.0638
47.0746
47.0852
47.0957
47.106
47.1161
47.1261
47.1359
47.1455
47.1549
47.1641
47.1732
47.182
47.1906
47.199
47.2072
47.2152
47.223
47.2305
47.2378
47.2449
47.2517
47.2583
47.2647
47.2708
47.2767
47.2823
47.2877
47.2928
47.2976
47.3023
47.3066
47.3107
47.3145
47.318
47.3213
47.3244
47.3271
47.3296
47.3318
47.3337
47.3354
47.3368
47.3379
47.3387
47.3392
47.3395
51.8055
51.8042
51.8014
51.7975
51.7924
51.7864
51.7794
51.7717
51.7631
51.7537
51.7436
51.7327
51.721
51.7086
51.6954
51.6814
51.6667
51.6511
51.6348
51.6177
51.5998
51.5812
51.5618
51.5416
51.5206
51.4989
51.4765
51.4533
51.4293
51.4047
51.3793
51.3532
51.3264
51.2989
51.2707
51.2419
51.2124
51.1822
51.1514
51.1199
51.0879
51.0552
51.0219
50.988
50.9535
50.9185
50.8829
50.8468
50.8101
50.7729
50.7352
50.697
50.6583
50.6192
50.5796
50.5396
50.4991
50.4582
50.4169
50.3753
50.3332
50.2908
50.2481
50.205
50.1616
50.1179
50.0739
50.0296
49.9851
49.9404
49.8954
49.8501
49.8047
49.7591
49.7134
49.6674
49.6214
49.5752
49.5288
49.4824
49.4359
49.3894
49.3428
49.2961
49.2494
49.2027
49.156
49.1094
49.0627
49.0161
48.9696
48.9231
48.8767
48.8305
48.7843
48.7383
48.6924
48.6467
48.6011
48.5557
48.5105
48.4656
48.4208
48.3763
48.332
48.288
48.2442
48.2008
48.1576
48.1147
48.0721
48.0299
47.988
47.9464
47.9052
47.8644
47.824
47.7839
47.7442
47.705
47.6661
47.6277
47.5897
47.5521
47.515
47.4784
47.4422
47.4065
47.3713
47.3366
47.3023
47.2686
47.2353
47.2026
47.1704
47.1387
47.1076
47.077
47.0469
47.0173
46.9883
46.9599
46.932
46.9047
46.8779
46.8517
46.8261
46.801
46.7765
46.7526
46.7293
46.7065
46.6843
46.6627
46.6417
46.6213
46.6014
46.5821
46.5634
46.5453
46.5277
46.5108
46.4944
46.4786
46.4633
46.4487
46.4346
46.4211
46.4081
46.3957
46.3839
46.3726
46.3619
46.3518
46.3421
46.3331
46.3245
46.3165
46.3091
46.3021
46.2957
46.2898
46.2845
46.2796
46.2752
46.2713
46.2679
46.265
46.2626
46.2607
46.2592
46.2582
46.2576
46.2575
46.2579
46.2586
46.2598
46.2614
46.2635
46.2659
46.2687
46.272
46.2756
46.2796
46.284
46.2887
46.2938
46.2992
46.305
46.3111
46.3175
46.3242
46.3313
46.3387
46.3463
46.3542
46.3624
46.3709
46.3796
46.3886
46.3978
46.4073
46.417
46.4269
46.437
46.4473
46.4578
46.4685
46.4794
46.4904
46.5016
46.513
46.5245
46.5361
46.5479
46.5597
46.5717
46.5838
46.596
46.6083
46.6207
46.6331
46.6456
46.6581
46.6707
46.6834
46.696
46.7087
46.7215
46.7342
46.7469
46.7596
46.7724
46.7851
46.7977
46.8104
46.823
46.8355
46.848
46.8605
46.8728
46.8851
46.8974
46.9095
46.9216
46.9335
46.9453
46.9571
46.9687
46.9802
46.9915
47.0028
47.0139
47.0248
47.0356
47.0463
47.0567
47.0671
47.0772
47.0872
47.097
47.1066
47.116
47.1252
47.1343
47.1431
47.1517
47.1601
47.1683
47.1763
47.1841
47.1916
47.1989
47.206
47.2128
47.2194
47.2258
47.2319
47.2378
47.2434
47.2488
47.2539
47.2588
47.2634
47.2677
47.2718
47.2756
47.2792
47.2824
47.2855
47.2882
47.2907
47.2929
47.2948
47.2965
47.2979
47.299
47.2998
47.3004
47.3006
51.7372
51.7359
51.7331
51.7291
51.7239
51.7178
51.7107
51.7027
51.694
51.6845
51.6742
51.6632
51.6514
51.6389
51.6255
51.6115
51.5966
51.581
51.5647
51.5475
51.5296
51.5109
51.4914
51.4712
51.4502
51.4285
51.4061
51.3828
51.3589
51.3342
51.3088
51.2828
51.256
51.2285
51.2003
51.1714
51.1419
51.1118
51.081
51.0495
51.0174
50.9848
50.9515
50.9176
50.8831
50.8481
50.8125
50.7764
50.7398
50.7026
50.6649
50.6267
50.5881
50.549
50.5094
50.4694
50.4289
50.388
50.3468
50.3051
50.2631
50.2207
50.178
50.1349
50.0915
50.0479
50.0039
49.9597
49.9152
49.8704
49.8254
49.7802
49.7349
49.6893
49.6435
49.5976
49.5516
49.5054
49.4591
49.4127
49.3662
49.3197
49.2731
49.2265
49.1798
49.1331
49.0865
49.0398
48.9932
48.9466
48.9001
48.8537
48.8073
48.7611
48.715
48.669
48.6231
48.5774
48.5319
48.4865
48.4413
48.3964
48.3517
48.3072
48.2629
48.2189
48.1752
48.1317
48.0886
48.0457
48.0032
47.961
47.9191
47.8775
47.8364
47.7956
47.7551
47.7151
47.6755
47.6362
47.5974
47.559
47.521
47.4835
47.4464
47.4098
47.3737
47.338
47.3028
47.2681
47.2339
47.2001
47.1669
47.1342
47.102
47.0704
47.0392
47.0086
46.9786
46.9491
46.9201
46.8917
46.8638
46.8365
46.8098
46.7836
46.758
46.7329
46.7085
46.6846
46.6612
46.6385
46.6163
46.5947
46.5737
46.5533
46.5335
46.5142
46.4955
46.4774
46.4599
46.443
46.4266
46.4108
46.3956
46.3809
46.3669
46.3534
46.3404
46.3281
46.3162
46.305
46.2943
46.2841
46.2745
46.2655
46.257
46.249
46.2415
46.2346
46.2282
46.2223
46.217
46.2121
46.2077
46.2039
46.2005
46.1976
46.1952
46.1933
46.1918
46.1908
46.1902
46.1901
46.1905
46.1913
46.1925
46.1941
46.1961
46.1986
46.2014
46.2047
46.2083
46.2123
46.2167
46.2214
46.2265
46.2319
46.2377
46.2438
46.2502
46.257
46.2641
46.2714
46.2791
46.287
46.2952
46.3037
46.3124
46.3214
46.3306
46.3401
46.3498
46.3597
46.3698
46.3801
46.3906
46.4013
46.4122
46.4232
46.4344
46.4458
46.4573
46.4689
46.4807
46.4925
46.5045
46.5166
46.5288
46.5411
46.5534
46.5659
46.5784
46.5909
46.6035
46.6161
46.6288
46.6415
46.6542
46.6669
46.6797
46.6924
46.7051
46.7178
46.7305
46.7431
46.7557
46.7683
46.7808
46.7932
46.8056
46.8179
46.8301
46.8422
46.8543
46.8662
46.878
46.8898
46.9014
46.9129
46.9242
46.9355
46.9465
46.9575
46.9683
46.9789
46.9894
46.9997
47.0099
47.0198
47.0296
47.0392
47.0486
47.0579
47.0669
47.0757
47.0843
47.0927
47.1009
47.1089
47.1167
47.1242
47.1315
47.1386
47.1454
47.152
47.1584
47.1645
47.1703
47.176
47.1813
47.1865
47.1913
47.1959
47.2003
47.2043
47.2082
47.2117
47.215
47.218
47.2208
47.2232
47.2254
47.2274
47.229
47.2304
47.2315
47.2323
47.2329
47.2332
51.6915
51.6902
51.6874
51.6835
51.6784
51.6724
51.6654
51.6575
51.6488
51.6393
51.629
51.618
51.6062
51.5937
51.5803
51.5662
51.5513
51.5357
51.5193
51.5021
51.4841
51.4654
51.4459
51.4257
51.4047
51.3829
51.3604
51.3372
51.3132
51.2885
51.2631
51.237
51.2102
51.1827
51.1545
51.1256
51.0961
51.0659
51.0351
51.0036
50.9715
50.9389
50.9056
50.8717
50.8372
50.8022
50.7666
50.7304
50.6938
50.6566
50.6189
50.5807
50.5421
50.5029
50.4633
50.4233
50.3829
50.342
50.3007
50.2591
50.217
50.1746
50.1319
50.0888
50.0454
50.0018
49.9578
49.9135
49.869
49.8243
49.7793
49.7341
49.6887
49.6431
49.5974
49.5514
49.5054
49.4592
49.4129
49.3665
49.32
49.2735
49.2269
49.1803
49.1336
49.0869
49.0402
48.9936
48.947
48.9004
48.8539
48.8074
48.7611
48.7148
48.6687
48.6227
48.5768
48.5311
48.4856
48.4402
48.3951
48.3501
48.3054
48.2609
48.2166
48.1726
48.1289
48.0854
48.0423
47.9994
47.9569
47.9147
47.8728
47.8313
47.7901
47.7493
47.7089
47.6688
47.6292
47.59
47.5511
47.5127
47.4748
47.4373
47.4002
47.3636
47.3274
47.2917
47.2565
47.2218
47.1876
47.1539
47.1207
47.088
47.0558
47.0242
46.993
46.9625
46.9324
46.9029
46.8739
46.8455
46.8177
46.7904
46.7636
46.7375
46.7119
46.6868
46.6624
46.6385
46.6152
46.5924
46.5703
46.5487
46.5277
46.5073
46.4875
46.4682
46.4495
46.4314
46.4139
46.397
46.3806
46.3649
46.3496
46.335
46.321
46.3075
46.2945
46.2822
46.2704
46.2591
46.2484
46.2383
46.2287
46.2197
46.2112
46.2032
46.1958
46.1889
46.1825
46.1766
46.1712
46.1664
46.1621
46.1582
46.1548
46.152
46.1496
46.1477
46.1462
46.1452
46.1447
46.1446
46.1449
46.1457
46.1469
46.1486
46.1506
46.1531
46.156
46.1592
46.1628
46.1669
46.1713
46.176
46.1811
46.1866
46.1923
46.1985
46.2049
46.2117
46.2187
46.2261
46.2338
46.2417
46.2499
46.2584
46.2672
46.2762
46.2854
46.2949
46.3046
46.3145
46.3246
46.3349
46.3455
46.3562
46.367
46.3781
46.3893
46.4007
46.4122
46.4238
46.4356
46.4475
46.4595
46.4716
46.4838
46.4961
46.5084
46.5209
46.5334
46.5459
46.5585
46.5712
46.5839
46.5966
46.6093
46.622
46.6347
46.6475
46.6602
46.6729
46.6856
46.6982
46.7108
46.7234
46.7359
46.7483
46.7607
46.773
46.7852
46.7974
46.8094
46.8214
46.8332
46.8449
46.8566
46.868
46.8794
46.8906
46.9017
46.9127
46.9235
46.9341
46.9446
46.9549
46.9651
46.975
46.9848
46.9945
47.0039
47.0131
47.0221
47.031
47.0396
47.048
47.0562
47.0642
47.0719
47.0795
47.0868
47.0938
47.1007
47.1073
47.1136
47.1198
47.1256
47.1312
47.1366
47.1417
47.1466
47.1512
47.1556
47.1596
47.1635
47.167
47.1703
47.1733
47.1761
47.1785
47.1807
47.1827
47.1843
47.1857
47.1868
47.1876
47.1882
47.1885
51.6268
51.6255
51.6227
51.6189
51.6138
51.6077
51.6006
51.5927
51.5839
51.5744
51.564
51.5529
51.541
51.5284
51.515
51.5008
51.4858
51.4701
51.4537
51.4364
51.4184
51.3997
51.3801
51.3598
51.3388
51.317
51.2945
51.2712
51.2473
51.2226
51.1971
51.171
51.1442
51.1167
51.0885
51.0596
51.03
50.9999
50.969
50.9376
50.9055
50.8728
50.8395
50.8056
50.7711
50.7361
50.7005
50.6644
50.6277
50.5905
50.5528
50.5146
50.476
50.4368
50.3973
50.3572
50.3168
50.2759
50.2346
50.193
50.151
50.1086
50.0658
50.0228
49.9794
49.9357
49.8918
49.8475
49.803
49.7583
49.7133
49.6681
49.6227
49.5771
49.5314
49.4855
49.4394
49.3932
49.347
49.3006
49.2541
49.2076
49.161
49.1143
49.0677
49.021
48.9744
48.9277
48.8811
48.8345
48.788
48.7416
48.6953
48.649
48.6029
48.5569
48.511
48.4653
48.4198
48.3745
48.3293
48.2844
48.2397
48.1952
48.1509
48.1069
48.0632
48.0198
47.9766
47.9338
47.8913
47.8491
47.8072
47.7657
47.7245
47.6837
47.6433
47.6033
47.5637
47.5244
47.4856
47.4472
47.4093
47.3718
47.3347
47.2981
47.262
47.2263
47.1911
47.1565
47.1223
47.0886
47.0554
47.0227
46.9905
46.9589
46.9278
46.8972
46.8671
46.8377
46.8087
46.7803
46.7525
46.7252
46.6985
46.6723
46.6467
46.6217
46.5973
46.5734
46.5501
46.5274
46.5052
46.4837
46.4627
46.4423
46.4225
46.4032
46.3846
46.3665
46.349
46.3321
46.3157
46.3
46.2848
46.2702
46.2561
46.2427
46.2297
46.2174
46.2056
46.1944
46.1837
46.1736
46.164
46.155
46.1465
46.1386
46.1311
46.1242
46.1179
46.112
46.1067
46.1018
46.0975
46.0937
46.0903
46.0875
46.0851
46.0832
46.0817
46.0808
46.0802
46.0802
46.0805
46.0813
46.0826
46.0842
46.0863
46.0887
46.0916
46.0949
46.0985
46.1026
46.107
46.1117
46.1168
46.1223
46.1281
46.1342
46.1407
46.1474
46.1545
46.1619
46.1696
46.1775
46.1858
46.1942
46.203
46.212
46.2213
46.2307
46.2404
46.2504
46.2605
46.2708
46.2814
46.2921
46.303
46.314
46.3252
46.3366
46.3481
46.3598
46.3715
46.3834
46.3954
46.4075
46.4197
46.432
46.4444
46.4568
46.4694
46.4819
46.4945
46.5072
46.5199
46.5326
46.5453
46.558
46.5708
46.5835
46.5962
46.6089
46.6216
46.6342
46.6468
46.6594
46.6719
46.6844
46.6967
46.709
46.7213
46.7334
46.7455
46.7574
46.7692
46.781
46.7926
46.8041
46.8155
46.8267
46.8378
46.8487
46.8595
46.8702
46.8807
46.891
46.9011
46.9111
46.9209
46.9305
46.9399
46.9491
46.9582
46.967
46.9756
46.984
46.9922
47.0002
47.008
47.0155
47.0228
47.0299
47.0367
47.0433
47.0497
47.0558
47.0617
47.0673
47.0727
47.0778
47.0826
47.0872
47.0916
47.0957
47.0995
47.103
47.1063
47.1093
47.1121
47.1146
47.1168
47.1187
47.1204
47.1217
47.1228
47.1237
47.1242
47.1245
51.5772
51.576
51.5733
51.5695
51.5645
51.5585
51.5515
51.5437
51.535
51.5254
51.5151
51.504
51.4921
51.4794
51.466
51.4518
51.4368
51.4211
51.4046
51.3873
51.3692
51.3504
51.3309
51.3106
51.2895
51.2677
51.2451
51.2218
51.1978
51.1731
51.1476
51.1215
51.0946
51.0671
51.0389
51.01
50.9804
50.9502
50.9193
50.8879
50.8558
50.823
50.7897
50.7558
50.7213
50.6863
50.6507
50.6145
50.5778
50.5406
50.5029
50.4647
50.4261
50.3869
50.3473
50.3073
50.2668
50.2259
50.1846
50.143
50.1009
50.0585
50.0158
49.9727
49.9293
49.8856
49.8416
49.7974
49.7528
49.7081
49.6631
49.6179
49.5725
49.5269
49.4811
49.4352
49.3891
49.343
49.2967
49.2503
49.2038
49.1572
49.1106
49.064
49.0173
48.9706
48.924
48.8773
48.8307
48.7841
48.7376
48.6911
48.6448
48.5985
48.5524
48.5064
48.4605
48.4148
48.3693
48.3239
48.2788
48.2338
48.1891
48.1446
48.1003
48.0563
48.0126
47.9692
47.926
47.8832
47.8406
47.7984
47.7566
47.715
47.6739
47.6331
47.5927
47.5526
47.513
47.4738
47.435
47.3966
47.3586
47.3211
47.2841
47.2475
47.2113
47.1757
47.1405
47.1058
47.0716
47.0379
47.0047
46.972
46.9399
46.9082
46.8771
46.8465
46.8165
46.787
46.7581
46.7297
46.7018
46.6746
46.6478
46.6217
46.5961
46.5711
46.5467
46.5228
46.4995
46.4768
46.4547
46.4331
46.4121
46.3918
46.3719
46.3527
46.3341
46.316
46.2985
46.2816
46.2653
46.2495
46.2344
46.2198
46.2057
46.1923
46.1794
46.167
46.1553
46.144
46.1334
46.1233
46.1137
46.1047
46.0962
46.0883
46.0809
46.074
46.0676
46.0618
46.0565
46.0517
46.0473
46.0435
46.0402
46.0374
46.035
46.0331
46.0317
46.0307
46.0302
46.0301
46.0305
46.0313
46.0326
46.0343
46.0363
46.0388
46.0417
46.045
46.0487
46.0527
46.0571
46.0619
46.067
46.0725
46.0783
46.0845
46.0909
46.0977
46.1048
46.1122
46.1199
46.1279
46.1361
46.1446
46.1534
46.1624
46.1717
46.1812
46.1909
46.2008
46.211
46.2213
46.2319
46.2426
46.2535
46.2646
46.2758
46.2872
46.2987
46.3104
46.3222
46.3341
46.3461
46.3582
46.3704
46.3827
46.3951
46.4076
46.4201
46.4326
46.4453
46.4579
46.4706
46.4833
46.4961
46.5088
46.5216
46.5343
46.547
46.5598
46.5725
46.5851
46.5977
46.6103
46.6228
46.6353
46.6476
46.66
46.6722
46.6843
46.6964
46.7084
46.7202
46.7319
46.7436
46.7551
46.7664
46.7777
46.7888
46.7997
46.8105
46.8212
46.8317
46.842
46.8522
46.8621
46.8719
46.8816
46.891
46.9002
46.9092
46.9181
46.9267
46.9351
46.9433
46.9513
46.9591
46.9666
46.9739
46.981
46.9878
46.9944
47.0008
47.0069
47.0128
47.0184
47.0238
47.0289
47.0338
47.0384
47.0427
47.0468
47.0506
47.0542
47.0575
47.0605
47.0632
47.0657
47.0679
47.0699
47.0715
47.0729
47.074
47.0748
47.0754
47.0757
51.515
51.5138
51.5111
51.5073
51.5024
51.4964
51.4894
51.4816
51.4728
51.4633
51.4529
51.4417
51.4298
51.4171
51.4036
51.3893
51.3743
51.3585
51.342
51.3246
51.3065
51.2877
51.2681
51.2477
51.2266
51.2048
51.1822
51.1589
51.1348
51.1101
51.0846
51.0584
51.0315
51.004
50.9757
50.9468
50.9172
50.887
50.8561
50.8246
50.7925
50.7598
50.7265
50.6925
50.658
50.623
50.5874
50.5512
50.5145
50.4773
50.4396
50.4014
50.3627
50.3235
50.2839
50.2439
50.2034
50.1625
50.1212
50.0795
50.0375
49.995
49.9523
49.9092
49.8658
49.8221
49.7781
49.7338
49.6893
49.6445
49.5995
49.5543
49.5089
49.4633
49.4176
49.3716
49.3256
49.2794
49.2331
49.1867
49.1402
49.0936
49.047
49.0004
48.9537
48.907
48.8603
48.8137
48.767
48.7204
48.6739
48.6275
48.5811
48.5349
48.4887
48.4427
48.3968
48.3511
48.3056
48.2602
48.2151
48.1701
48.1254
48.0809
48.0366
47.9926
47.9489
47.9055
47.8623
47.8195
47.7769
47.7347
47.6929
47.6513
47.6102
47.5694
47.529
47.4889
47.4493
47.4101
47.3713
47.3329
47.2949
47.2574
47.2204
47.1838
47.1477
47.112
47.0768
47.0421
47.0079
46.9742
46.9411
46.9084
46.8762
46.8446
46.8135
46.7829
46.7529
46.7234
46.6945
46.6661
46.6383
46.611
46.5843
46.5582
46.5326
46.5076
46.4832
46.4593
46.436
46.4133
46.3912
46.3697
46.3487
46.3283
46.3086
46.2893
46.2707
46.2527
46.2352
46.2183
46.202
46.1862