/*--------------------------------*- C++ -*----------------------------------*\
| =========                 |                                                 |
| \\      /  F ield         | OpenFOAM: The Open Source CFD Toolbox           |
|  \\    /   O peration     | Version:  2212                                  |
|   \\  /    A nd           | Website:  www.openfoam.com                      |
|    \\/     M anipulation  |                                                 |
\*---------------------------------------------------------------------------*/
FoamFile
{
    version     2.0;
    format      ascii;
    arch        "LSB;label=32;scalar=64";
    class       surfaceScalarField;
    location    "1010";
    object      phi;
}
// * * * * * * * * * * * * * * * * * * * * * * * * * * * * * * * * * * * * * //

dimensions      [1 0 -1 0 0 0 0];

oriented        oriented;

internalField   nonuniform List<scalar> 
408640
(
-708.611
705.659
-1398.67
689.614
-2055.03
655.931
-2666.76
611.294
-3229.04
561.856
-3743.19
513.724
-4214.91
471.299
-4652.53
437.193
-5065.09
412.146
-5461.05
395.544
-5847.4
385.929
-6229.36
381.547
-6610.49
380.706
-6992.91
382
-7377.7
384.381
-7765.27
387.146
-8155.55
389.867
-8548.29
392.316
-8943.1
394.397
-9339.61
396.087
-9737.43
397.404
-10136.2
398.383
-10535.7
399.063
-10935.6
399.479
-11335.7
399.664
-11735.8
399.645
-12135.6
399.445
-12535.1
399.084
-12934.1
398.578
-13332.5
397.939
-13730.1
397.178
-14126.8
396.307
-14522.6
395.331
-14917.2
394.259
-15310.7
393.097
-15703
391.848
-16094
390.519
-16483.5
389.113
-16871.5
387.634
-17258
386.084
-17642.9
384.466
-18026.1
382.783
-18407.6
381.037
-18787.2
379.23
-19165
377.363
-19540.9
375.439
-19914.7
373.459
-20286.6
371.424
-20656.3
369.336
-21024
367.195
-21389.4
365.003
-21752.6
362.761
-22113.4
360.47
-22472
358.131
-22828.2
355.744
-23181.9
353.311
-23533.1
350.832
-23881.9
348.308
-24228
345.74
-24571.5
343.128
-24912.4
340.473
-25250.6
337.777
-25586.1
335.038
-25918.8
332.259
-26248.6
329.44
-26575.6
326.581
-26899.7
323.683
-27220.9
320.747
-27539
317.772
-27854.2
314.761
-28166.3
311.713
-28475.4
308.629
-28781.3
305.509
-29084.1
302.355
-29383.6
299.166
-29680
295.944
-29973.1
292.688
-30262.9
289.4
-30549.4
286.079
-30832.5
282.728
-31112.3
279.345
-31388.6
275.932
-31661.5
272.489
-31930.9
269.017
-32196.8
265.516
-32459.2
261.988
-32718
258.432
-32973.3
254.849
-33224.9
251.24
-33472.9
247.605
-33717.2
243.944
-33957.9
240.26
-34194.8
236.551
-34428
232.819
-34657.5
229.064
-34883.2
225.287
-35105
221.489
-35323.1
217.669
-35537.3
213.829
-35747.7
209.969
-35954.1
206.09
-36156.7
202.192
-36355.3
198.277
-36550.1
194.343
-36740.8
190.393
-36927.6
186.427
-37110.4
182.445
-37289.3
178.448
-37464.1
174.437
-37634.8
170.412
-37801.6
166.374
-37964.2
162.323
-38122.9
158.26
-38277.4
154.186
-38427.8
150.101
-38574.2
146.005
-38716.4
141.901
-38854.6
137.787
-38988.6
133.664
-39118.5
129.534
-39244.2
125.397
-39365.8
121.254
-39483.2
117.104
-39596.5
112.949
-39705.6
108.789
-39810.5
104.624
-39911.3
100.457
-40007.9
96.2858
-40100.3
92.1125
-40188.6
87.9373
-40272.7
83.7608
-40352.5
79.5836
-40428.3
75.4062
-40499.8
71.2292
-40567.1
67.0532
-40630.3
62.8788
-40689.3
58.7065
-40744.1
54.5368
-40794.8
50.3703
-40841.2
46.2076
-40883.6
42.0491
-40921.7
37.8955
-40955.7
33.7473
-40985.6
29.605
-41011.3
25.469
-41032.9
21.3401
-41050.4
17.2185
-41063.7
13.105
-41073
8.99991
-41078.1
4.9038
-41079.2
0.817159
-41076.1
-3.25953
-41069
-7.32579
-41057.9
-11.3811
-41042.7
-15.4251
-41023.4
-19.4572
-41000.1
-23.477
-40972.9
-27.484
-40941.6
-31.4778
-40906.3
-35.458
-40867.1
-39.4241
-40823.9
-43.3756
-40776.7
-47.3123
-40725.7
-51.2335
-40670.7
-55.1391
-40611.8
-59.0284
-40549.1
-62.9012
-40482.5
-66.757
-40412
-70.5955
-40337.8
-74.4163
-40259.7
-78.219
-40177.8
-82.0033
-40092.2
-85.7688
-40002.8
-89.5152
-39909.6
-93.2421
-39812.8
-96.9492
-39712.3
-100.636
-39608.1
-104.303
-39500.2
-107.948
-39388.7
-111.573
-39273.6
-115.176
-39155
-118.758
-39032.7
-122.318
-38906.9
-125.855
-38777.6
-129.37
-38644.8
-132.862
-38508.5
-136.331
-38368.8
-139.777
-38225.6
-143.2
-38079
-146.599
-37929.1
-149.973
-37775.8
-153.324
-37619.2
-156.65
-37459.2
-159.952
-37296
-163.229
-37129.5
-166.481
-36959.8
-169.707
-36786.8
-172.909
-36610.7
-176.085
-36431.5
-179.235
-36249.1
-182.359
-36063.6
-185.458
-35875
-188.53
-35683.4
-191.576
-35488.7
-194.595
-35291.1
-197.588
-35090.4
-200.555
-34886.9
-203.494
-34680.4
-206.407
-34471
-209.292
-34258.7
-212.151
-34043.6
-214.982
-33825.7
-217.787
-33605.1
-220.563
-33381.6
-223.313
-33155.5
-226.035
-32926.6
-228.729
-32695.1
-231.396
-32460.9
-234.035
-32224.1
-236.646
-31984.7
-239.23
-31742.7
-241.786
-31498.2
-244.314
-31251.2
-246.814
-31001.8
-249.286
-30749.9
-251.731
-30495.5
-254.147
-30238.8
-256.536
-29979.7
-258.896
-29718.2
-261.229
-29454.5
-263.534
-29188.4
-265.81
-28920.1
-268.059
-28649.6
-270.28
-28376.9
-272.473
-28102
-274.639
-27825
-276.776
-27545.8
-278.885
-27264.6
-280.967
-26981.3
-283.021
-26695.9
-285.047
-26408.6
-287.046
-26119.3
-289.016
-25828
-290.96
-25534.9
-292.875
-25239.8
-294.763
-24942.8
-296.624
-24644.1
-298.457
-24343.5
-300.263
-24041.1
-302.041
-23737
-303.792
-23431.1
-305.516
-23123.5
-307.213
-22814.3
-308.883
-22503.4
-310.526
-22190.9
-312.141
-21876.8
-313.73
-21561.1
-315.292
-21243.9
-316.828
-20925.2
-318.336
-20605
-319.818
-20283.3
-321.274
-19960.2
-322.703
-19635.7
-324.105
-19309.8
-325.481
-18982.6
-326.831
-18654
-328.155
-18324.1
-329.453
-17993
-330.724
-17660.6
-331.97
-17326.9
-333.19
-16992.1
-334.384
-16656.1
-335.552
-16319
-336.695
-15980.7
-337.812
-15641.3
-338.903
-15300.9
-339.969
-14959.4
-341.01
-14616.9
-342.026
-14273.4
-343.016
-13929
-343.981
-13583.6
-344.921
-13237.3
-345.836
-12890
-346.726
-12542
-347.591
-12193
-348.432
-11843.3
-349.248
-11492.8
-350.039
-11141.4
-350.806
-10789.4
-351.548
-10436.6
-352.266
-10083.1
-352.96
-9729
-353.63
-9374.21
-354.275
-9018.79
-354.897
-8662.78
-355.494
-8306.19
-356.068
-7949.04
-356.618
-7591.37
-357.144
-7233.2
-357.646
-6874.54
-358.126
-6515.42
-358.581
-6155.88
-359.013
-5795.92
-359.422
-5435.57
-359.807
-5074.86
-360.169
-4713.81
-360.508
-4352.45
-360.823
-3990.79
-361.115
-3628.86
-361.383
-3266.69
-361.628
-2904.3
-361.849
-2541.7
-362.046
-2178.93
-362.22
-1816.02
-362.37
-1452.97
-362.496
-1089.82
-362.599
-726.597
-362.677
-363.314
-362.733
-362.764
-698.493
1403.71
-1380.32
1371.01
-2030.15
1305.32
-2637.31
1218.02
-3197.24
1121.36
-3710.95
1027.01
-4183.74
943.672
-4623.42
876.451
-5038.58
826.888
-5437.29
793.835
-5826.27
774.495
-6210.6
765.46
-6593.74
763.431
-6977.82
765.656
-7363.93
770.077
-7752.5
775.304
-8143.54
780.489
-8536.82
785.176
-8932.01
789.166
-9328.75
792.41
-9726.7
794.937
-10125.5
796.81
-10525
798.101
-10924.8
798.879
-11324.8
799.205
-11724.7
799.132
-12124.4
798.705
-12523.7
797.959
-12922.4
796.926
-13320.5
795.632
-13717.9
794.098
-14114.3
792.344
-14509.8
790.383
-14904.2
788.232
-15297.4
785.9
-15689.4
783.398
-16080
780.735
-16469.2
777.919
-16857
774.956
-17243.2
771.854
-17627.7
768.616
-18010.6
765.248
-18391.7
761.754
-18771.1
758.139
-19148.5
754.405
-19524.1
750.557
-19897.6
746.596
-20269.1
742.526
-20638.6
738.35
-21005.9
734.069
-21371
729.685
-21733.8
725.202
-22094.4
720.621
-22452.6
715.943
-22808.5
711.17
-23161.9
706.305
-23512.8
701.348
-23861.2
696.301
-24207
691.166
-24550.3
685.944
-24890.9
680.636
-25228.7
675.244
-25563.9
669.769
-25896.2
664.213
-26225.8
658.576
-26552.5
652.86
-26876.3
647.065
-27197.1
641.195
-27515
635.248
-27829.9
629.227
-28141.7
623.134
-28450.5
616.968
-28756.1
610.731
-29058.6
604.424
-29357.9
598.049
-29654
591.606
-29946.8
585.097
-30236.3
578.523
-30522.5
571.884
-30805.4
565.183
-31084.8
558.42
-31360.9
551.597
-31633.5
544.714
-31902.7
537.772
-32168.3
530.774
-32430.5
523.719
-32689
516.61
-32944
509.447
-33195.4
502.231
-33443.2
494.964
-33687.3
487.646
-33927.7
480.28
-34164.4
472.866
-34397.4
465.404
-34626.6
457.898
-34852
450.347
-35073.7
442.753
-35291.5
435.116
-35505.5
427.439
-35715.6
419.723
-35921.9
411.968
-36124.2
404.175
-36322.7
396.347
-36517.2
388.484
-36707.8
380.587
-36894.4
372.658
-37077
364.697
-37255.6
356.707
-37430.2
348.688
-37600.8
340.641
-37767.4
332.568
-37929.9
324.469
-38088.3
316.347
-38242.7
308.202
-38393
300.035
-38539.2
291.848
-38681.2
283.642
-38819.2
275.417
-38953.1
267.176
-39082.8
258.92
-39208.4
250.649
-39329.8
242.365
-39447.1
234.069
-39560.3
225.762
-39669.2
217.446
-39774.1
209.121
-39874.7
200.789
-39971.2
192.451
-40063.5
184.108
-40151.6
175.762
-40235.6
167.412
-40315.4
159.062
-40391
150.711
-40462.4
142.36
-40529.6
134.012
-40592.7
125.667
-40651.6
117.326
-40706.4
108.99
-40756.9
100.661
-40803.3
92.3396
-40845.6
84.0265
-40883.7
75.7231
-40917.6
67.4304
-40947.4
59.1496
-40973.1
50.8815
-40994.6
42.6274
-41012.1
34.3882
-41025.4
26.1649
-41034.6
17.9586
-41039.7
9.77022
-41040.7
1.60077
-41037.6
-6.54878
-41030.5
-14.6774
-41019.3
-22.7843
-41004.1
-30.8684
-40984.8
-38.9287
-40961.5
-46.9645
-40934.2
-54.9747
-40903
-62.9585
-40867.7
-70.915
-40828.5
-78.8433
-40785.3
-86.7426
-40738.1
-94.612
-40687.1
-102.451
-40632.1
-110.258
-40573.3
-118.033
-40510.6
-125.774
-40444
-133.482
-40373.6
-141.156
-40299.4
-148.793
-40221.3
-156.395
-40139.5
-163.96
-40053.9
-171.487
-39964.6
-178.976
-39871.5
-186.426
-39774.7
-193.836
-39674.3
-201.206
-39570.1
-208.536
-39462.3
-215.823
-39350.9
-223.069
-39235.9
-230.272
-39117.3
-237.431
-38995.2
-244.547
-38869.5
-251.618
-38740.2
-258.644
-38607.5
-265.625
-38471.4
-272.56
-38331.7
-279.448
-38188.7
-286.29
-38042.2
-293.084
-37892.4
-299.83
-37739.2
-306.527
-37582.7
-313.176
-37422.9
-319.776
-37259.8
-326.326
-37093.4
-332.827
-36923.8
-339.277
-36751.1
-345.676
-36575.1
-352.024
-36396
-358.321
-36213.7
-364.566
-36028.4
-370.76
-35840
-376.901
-35648.5
-382.989
-35454
-389.025
-35256.5
-395.007
-35056.1
-400.937
-34852.7
-406.813
-34646.4
-412.635
-34437.2
-418.403
-34225.1
-424.117
-34010.2
-429.776
-33792.5
-435.381
-33572
-440.932
-33348.8
-446.428
-33122.8
-451.868
-32894.1
-457.254
-32662.8
-462.584
-32428.8
-467.86
-32192.2
-473.079
-31953.1
-478.244
-31711.3
-483.352
-31467.1
-488.405
-31220.3
-493.403
-30971.1
-498.344
-30719.4
-503.23
-30465.3
-508.061
-30208.8
-512.835
-29949.9
-517.553
-29688.7
-522.216
-29425.2
-526.823
-29159.4
-531.373
-28891.3
-535.868
-28621.1
-540.308
-28348.6
-544.691
-28074
-549.019
-27797.2
-553.291
-27518.3
-557.507
-27237.3
-561.668
-26954.3
-565.774
-26669.3
-569.824
-26382.2
-573.818
-26093.2
-577.757
-25802.2
-581.641
-25509.3
-585.47
-25214.5
-589.244
-24917.8
-592.963
-24619.3
-596.627
-24319
-600.236
-24017
-603.791
-23713.1
-607.291
-23407.5
-610.737
-23100.3
-614.128
-22791.3
-617.466
-22480.8
-620.749
-22168.6
-623.979
-21854.8
-627.154
-21539.4
-630.276
-21222.5
-633.345
-20904.1
-636.36
-20584.2
-639.322
-20262.8
-642.232
-19940.1
-645.088
-19615.9
-647.891
-19290.3
-650.642
-18963.4
-653.34
-18635.1
-655.986
-18305.6
-658.58
-17974.8
-661.121
-17642.7
-663.611
-17309.4
-666.049
-16974.9
-668.436
-16639.2
-670.771
-16302.4
-673.054
-15964.5
-675.287
-15625.5
-677.468
-15285.4
-679.599
-14944.2
-681.679
-14602.1
-683.709
-14258.9
-685.688
-13914.8
-687.617
-13569.8
-689.496
-13223.8
-691.324
-12876.9
-693.104
-12529.2
-694.833
-12180.6
-696.513
-11831.2
-698.144
-11481.1
-699.725
-11130.1
-701.258
-10778.4
-702.742
-10426
-704.177
-10072.9
-705.563
-9719.09
-706.901
-9364.66
-708.192
-9009.61
-709.434
-8653.95
-710.628
-8297.72
-711.775
-7940.94
-712.874
-7583.64
-713.925
-7225.82
-714.93
-6867.53
-715.887
-6508.78
-716.798
-6149.6
-717.662
-5790.01
-718.478
-5430.03
-719.249
-5069.69
-719.972
-4709.01
-720.649
-4348.01
-721.279
-3986.72
-721.862
-3625.16
-722.398
-3263.36
-722.887
-2901.34
-723.33
-2539.11
-723.724
-2176.71
-724.071
-1814.17
-724.371
-1451.49
-724.623
-1088.71
-724.828
-725.859
-724.985
-362.947
-725.096
-725.163
-684.912
2088.18
-1354.28
2039.93
-1994.04
1944.65
-2594.3
1817.84
-3150.66
1677.29
-3663.8
1539.73
-4138.36
1417.82
-4581.39
1319.06
-5000.75
1245.83
-5403.92
1196.58
-5797.19
1167.35
-6185.38
1153.24
-6571.85
1149.48
-6958.68
1152.07
-7347.01
1158
-7737.34
1165.22
-8129.74
1172.47
-8524.06
1179.08
-8920.03
1184.72
-9317.36
1189.31
-9715.72
1192.89
-10114.9
1195.53
-10514.5
1197.33
-10914.4
1198.38
-11314.4
1198.78
-11714.3
1198.6
-12113.9
1197.9
-12513.1
1196.74
-12911.8
1195.15
-13309.7
1193.17
-13706.9
1190.84
-14103.2
1188.19
-14498.4
1185.23
-14892.6
1181.98
-15285.6
1178.47
-15677.3
1174.71
-16067.7
1170.7
-16456.7
1166.47
-16844.1
1162.02
-17230.1
1157.36
-17614.4
1152.49
-17997
1147.44
-18377.8
1142.19
-18756.9
1136.77
-19134
1131.16
-19509.3
1125.39
-19882.6
1119.45
-20253.8
1113.34
-20622.9
1107.08
-20989.9
1100.65
-21354.7
1094.08
-21717.3
1087.35
-22077.6
1080.48
-22435.5
1073.46
-22791.1
1066.31
-23144.2
1059.01
-23494.8
1051.58
-23843
1044.01
-24188.5
1036.3
-24531.5
1028.47
-24871.8
1020.51
-25209.4
1012.43
-25544.2
1004.22
-25876.3
995.884
-26205.6
987.431
-26532
978.859
-26855.5
970.17
-27176.1
961.367
-27493.7
952.45
-27808.3
943.421
-28119.9
934.283
-28428.3
925.037
-28733.7
915.684
-29035.9
906.227
-29334.9
896.667
-29630.7
887.006
-29923.3
877.246
-30212.6
867.388
-30498.5
857.434
-30781.1
847.385
-31060.4
837.244
-31336.2
827.012
-31608.6
816.691
-31877.5
806.283
-32142.9
795.789
-32404.8
785.211
-32663.1
774.55
-32917.9
763.809
-33169
752.989
-33416.5
742.093
-33660.4
731.12
-33900.6
720.075
-34137.1
708.957
-34369.8
697.77
-34598.8
686.514
-34824.1
675.191
-35045.5
663.804
-35263.1
652.354
-35476.9
640.843
-35686.8
629.272
-35892.9
617.644
-36095.1
605.96
-36293.3
594.222
-36487.6
582.432
-36678
570.591
-36864.4
558.702
-37046.8
546.766
-37225.3
534.784
-37399.7
522.76
-37570.1
510.695
-37736.5
498.589
-37898.9
486.447
-38057.1
474.268
-38211.3
462.055
-38361.5
449.81
-38507.5
437.534
-38649.4
425.229
-38787.3
412.898
-38921
400.541
-39050.5
388.162
-39176
375.76
-39297.3
363.339
-39414.5
350.901
-39527.5
338.446
-39636.3
325.976
-39741
313.494
-39841.5
301.001
-39937.9
288.499
-40030.1
275.99
-40118.1
263.475
-40202
250.956
-40281.6
238.435
-40357.1
225.914
-40428.5
213.394
-40495.6
200.877
-40558.6
188.364
-40617.4
175.858
-40672.1
163.36
-40722.6
150.872
-40768.9
138.394
-40811.1
125.93
-40849.1
113.48
-40883
101.047
-40912.7
88.6309
-40938.3
76.2342
-40959.8
63.8584
-40977.2
51.505
-40990.4
39.1755
-40999.6
26.8714
-41004.7
14.5943
-41005.6
2.34551
-41002.5
-9.87338
-40995.4
-22.0609
-40984.2
-34.2158
-40968.9
-46.3364
-40949.6
-58.4215
-40926.3
-70.4697
-40899
-82.4796
-40867.7
-94.4498
-40832.5
-106.379
-40793.2
-118.266
-40750
-130.11
-40702.9
-141.908
-40651.9
-153.661
-40596.9
-165.366
-40538.1
-177.023
-40475.4
-188.63
-40408.9
-200.187
-40338.5
-211.691
-40264.3
-223.142
-40186.2
-234.539
-40104.5
-245.881
-40018.9
-257.166
-39929.6
-268.394
-39836.6
-279.564
-39739.9
-290.674
-39639.4
-301.724
-39535.4
-312.713
-39427.6
-323.639
-39316.3
-334.502
-39201.3
-345.301
-39082.8
-356.035
-38960.7
-366.703
-38835.1
-377.305
-38706
-387.839
-38573.4
-398.305
-38437.3
-408.702
-38297.7
-419.029
-38154.8
-429.286
-38008.4
-439.472
-37858.7
-449.585
-37705.6
-459.627
-37549.2
-469.595
-37389.5
-479.49
-37226.5
-489.31
-37060.3
-499.055
-36890.8
-508.725
-36718.1
-518.319
-36542.3
-527.836
-36363.3
-537.277
-36181.2
-546.64
-35996
-555.925
-35807.7
-565.132
-35616.4
-574.259
-35422
-583.308
-35224.7
-592.277
-35024.4
-601.166
-34821.2
-609.975
-34615
-618.704
-34406
-627.351
-34194.1
-635.917
-33979.3
-644.402
-33761.8
-652.805
-33541.5
-661.126
-33318.4
-669.365
-33092.6
-677.522
-32864.2
-685.596
-32633
-693.587
-32399.2
-701.495
-32162.8
-709.32
-31923.9
-717.062
-31682.3
-724.721
-31438.3
-732.297
-31191.7
-739.788
-30942.7
-747.197
-30691.2
-754.521
-30437.3
-761.762
-30181
-768.92
-29922.3
-775.993
-29661.4
-782.983
-29398.1
-789.889
-29132.5
-796.711
-28864.7
-803.45
-28594.6
-810.105
-28322.4
-816.676
-28048
-823.164
-27771.5
-829.568
-27492.8
-835.889
-27212.1
-842.127
-26929.3
-848.281
-26644.5
-854.352
-26357.7
-860.34
-26068.9
-866.246
-25778.2
-872.068
-25485.5
-877.808
-25191
-883.465
-24894.6
-889.04
-24596.4
-894.533
-24296.4
-899.943
-23994.5
-905.272
-23691
-910.519
-23385.7
-915.685
-23078.7
-920.769
-22770
-925.772
-22459.7
-930.694
-22147.8
-935.535
-21834.3
-940.296
-21519.2
-944.976
-21202.6
-949.576
-20884.5
-954.096
-20564.9
-958.537
-20243.8
-962.897
-19921.3
-967.179
-19597.4
-971.381
-19272.2
-975.505
-18945.5
-979.549
-18617.6
-983.516
-18288.3
-987.404
-17957.8
-991.214
-17626
-994.946
-17293.1
-998.601
-16958.9
-1002.18
-16623.5
-1005.68
-16287
-1009.1
-15949.4
-1012.45
-15610.7
-1015.72
-15270.9
-1018.91
-14930.1
-1022.03
-14588.3
-1025.07
-14245.4
-1028.04
-13901.7
-1030.93
-13556.9
-1033.75
-13211.3
-1036.49
-12864.7
-1039.16
-12517.3
-1041.75
-12169.1
-1044.27
-11820
-1046.71
-11470.2
-1049.08
-11119.5
-1051.38
-10768.2
-1053.6
-10416.1
-1055.75
-10063.3
-1057.83
-9709.86
-1059.84
-9355.76
-1061.77
-9001.04
-1063.63
-8645.72
-1065.43
-8289.83
-1067.14
-7933.39
-1068.79
-7576.42
-1070.37
-7218.95
-1071.87
-6861
-1073.31
-6502.59
-1074.67
-6143.75
-1075.97
-5784.5
-1077.19
-5424.86
-1078.35
-5064.86
-1079.43
-4704.52
-1080.45
-4343.87
-1081.39
-3982.93
-1082.26
-3621.71
-1083.07
-3260.25
-1083.8
-2898.57
-1084.46
-2536.69
-1085.06
-2174.64
-1085.58
-1812.44
-1086.03
-1450.11
-1086.4
-1087.68
-1086.71
-725.165
-1086.95
-362.598
-1087.12
-1087.21
-666.371
2754.11
-1318.86
2691.99
-1945.01
2570.37
-2536.01
2408.4
-3087.66
2228.52
-3600.21
2051.85
-4077.43
1894.61
-4525.29
1766.51
-4950.66
1670.79
-5360.18
1605.69
-5759.57
1566.32
-6153.28
1546.53
-6544.5
1540.28
-6935.28
1542.44
-7326.83
1549.13
-7719.73
1557.7
-8114.16
1566.49
-8510.07
1574.57
-8907.27
1581.51
-9305.55
1587.17
-9704.65
1591.57
-10104.3
1594.8
-10504.4
1596.97
-10904.6
1598.2
-11304.9
1598.58
-11704.9
1598.22
-12104.6
1597.19
-12503.8
1595.55
-12902.4
1593.36
-13300.4
1590.67
-13697.4
1587.52
-14093.6
1583.93
-14488.8
1579.95
-14882.8
1575.6
-15275.6
1570.89
-15667.2
1565.85
-16057.4
1560.49
-16446.2
1554.83
-16833.4
1548.88
-17219.1
1542.65
-17603.2
1536.16
-17985.6
1529.41
-18366.2
1522.41
-18745.1
1515.17
-19122
1507.69
-19497
1499.99
-19870
1492.06
-20241
1483.91
-20609.9
1475.56
-20976.7
1466.99
-21341.3
1458.22
-21703.6
1449.26
-22063.6
1440.09
-22421.3
1430.74
-22776.6
1421.19
-23129.5
1411.46
-23479.8
1401.55
-23827.7
1391.46
-24173
1381.19
-24515.7
1370.75
-24855.7
1360.14
-25193.1
1349.36
-25527.7
1338.41
-25859.5
1327.31
-26188.6
1316.04
-26514.7
1304.61
-26838
1293.03
-27158.3
1281.29
-27475.7
1269.41
-27790.1
1257.37
-28101.4
1245.19
-28409.6
1232.86
-28714.7
1220.4
-29016.7
1207.79
-29315.5
1195.05
-29611
1182.17
-29903.4
1169.16
-30192.4
1156.02
-30478.1
1142.75
-30760.5
1129.36
-31039.5
1115.84
-31315.1
1102.2
-31587.2
1088.44
-31855.9
1074.57
-32121.1
1060.58
-32382.8
1046.48
-32640.9
1032.27
-32895.4
1017.95
-33146.4
1003.53
-33393.7
989.008
-33637.3
974.383
-33877.3
959.66
-34113.6
944.841
-34346.1
929.929
-34574.9
914.926
-34800
899.834
-35021.2
884.657
-35238.6
869.395
-35452.2
854.051
-35661.9
838.629
-35867.8
823.13
-36069.8
807.556
-36267.8
791.911
-36462
776.196
-36652.2
760.414
-36838.4
744.567
-37020.7
728.657
-37198.9
712.688
-37373.2
696.661
-37543.4
680.579
-37709.7
664.445
-37871.8
648.26
-38029.9
632.027
-38184
615.749
-38334
599.428
-38479.8
583.066
-38621.6
566.666
-38759.3
550.23
-38892.8
533.76
-39022.3
517.26
-39147.6
500.731
-39268.8
484.176
-39385.8
467.596
-39498.7
450.996
-39607.4
434.376
-39711.9
417.739
-39812.3
401.088
-39908.6
384.425
-40000.7
367.753
-40088.6
351.072
-40172.3
334.387
-40251.9
317.699
-40327.3
301.01
-40398.5
284.323
-40465.5
267.64
-40528.4
250.963
-40587.2
234.295
-40641.7
217.637
-40692.1
200.992
-40738.4
184.363
-40780.4
167.75
-40818.4
151.157
-40852.2
134.585
-40881.9
118.037
-40907.4
101.515
-40928.8
85.0207
-40946.1
68.5562
-40959.3
52.1235
-40968.4
35.7248
-40973.4
19.3619
-40974.3
3.037
-40971.2
-13.2481
-40964
-29.4914
-40952.7
-45.6911
-40937.4
-61.8452
-40918.1
-77.9519
-40894.8
-94.0093
-40867.4
-110.016
-40836.1
-125.969
-40800.8
-141.868
-40761.5
-157.711
-40718.3
-173.495
-40671.2
-189.22
-40620.1
-204.883
-40565.2
-220.483
-40506.4
-236.019
-40443.7
-251.488
-40377.1
-266.89
-40306.7
-282.222
-40232.5
-297.484
-40154.5
-312.673
-40072.8
-327.789
-39987.2
-342.829
-39897.9
-357.793
-39804.9
-372.679
-39708.2
-387.485
-39607.9
-402.212
-39503.8
-416.856
-39396.1
-431.418
-39284.8
-445.895
-39169.9
-460.287
-39051.4
-474.592
-38929.4
-488.809
-38803.8
-502.938
-38674.7
-516.977
-38542.2
-530.925
-38406.2
-544.781
-38266.7
-558.544
-38123.8
-572.213
-37977.5
-585.787
-37827.8
-599.265
-37674.8
-612.647
-37518.5
-625.932
-37358.9
-639.118
-37196
-652.205
-37029.9
-665.192
-36860.5
-678.079
-36687.9
-690.864
-36512.2
-703.548
-36333.3
-716.128
-36151.3
-728.606
-35966.2
-740.979
-35778.1
-753.248
-35586.8
-765.413
-35392.6
-777.471
-35195.4
-789.424
-34995.2
-801.27
-34792.1
-813.009
-34586.1
-824.64
-34377.2
-836.164
-34165.4
-847.579
-33950.8
-858.886
-33733.5
-870.084
-33513.3
-881.173
-33290.4
-892.152
-33064.7
-903.021
-32836.4
-913.781
-32605.4
-924.43
-32371.8
-934.968
-32135.6
-945.396
-31896.8
-955.713
-31655.4
-965.919
-31411.5
-976.013
-31165.1
-985.997
-30916.3
-995.869
-30665
-1005.63
-30411.3
-1015.28
-30155.2
-1024.82
-29896.7
-1034.24
-29635.9
-1043.56
-29372.8
-1052.76
-29107.5
-1061.85
-28839.8
-1070.83
-28570
-1079.7
-28298
-1088.45
-28023.8
-1097.1
-27747.5
-1105.63
-27469
-1114.06
-27188.5
-1122.37
-26906
-1130.57
-26621.4
-1138.66
-26334.8
-1146.64
-26046.2
-1154.51
-25755.7
-1162.26
-25463.3
-1169.91
-25169
-1177.45
-24872.9
-1184.88
-24574.9
-1192.2
-24275.1
-1199.41
-23973.5
-1206.51
-23670.2
-1213.5
-23365.2
-1220.38
-23058.4
-1227.16
-22750
-1233.83
-22440
-1240.38
-22128.3
-1246.83
-21815.1
-1253.18
-21500.2
-1259.41
-21183.9
-1265.54
-20866
-1271.57
-20546.7
-1277.48
-20225.9
-1283.29
-19903.7
-1289
-19580.1
-1294.6
-19255.1
-1300.09
-18928.7
-1305.48
-18601
-1310.77
-18272.1
-1315.95
-17941.8
-1321.02
-17610.4
-1326
-17277.7
-1330.87
-16943.8
-1335.63
-16608.7
-1340.3
-16272.5
-1344.86
-15935.2
-1349.32
-15596.8
-1353.68
-15257.3
-1357.93
-14916.8
-1362.09
-14575.2
-1366.14
-14232.7
-1370.09
-13889.2
-1373.95
-13544.8
-1377.7
-13199.4
-1381.35
-12853.2
-1384.9
-12506.1
-1388.36
-12158.2
-1391.71
-11809.4
-1394.97
-11459.9
-1398.13
-11109.5
-1401.19
-10758.5
-1404.15
-10406.7
-1407.02
-10054.2
-1409.79
-9701.11
-1412.46
-9347.33
-1415.04
-8992.93
-1417.52
-8637.93
-1419.91
-8282.36
-1422.2
-7926.23
-1424.39
-7569.59
-1426.49
-7212.43
-1428.5
-6854.8
-1430.41
-6496.72
-1432.23
-6138.2
-1433.95
-5779.27
-1435.58
-5419.96
-1437.12
-5060.29
-1438.57
-4700.27
-1439.92
-4339.95
-1441.18
-3979.33
-1442.34
-3618.44
-1443.41
-3257.31
-1444.39
-2895.95
-1445.27
-2534.4
-1446.06
-2172.68
-1446.76
-1810.8
-1447.36
-1448.8
-1447.86
-1086.7
-1448.27
-724.512
-1448.58
-362.274
-1448.81
-1448.94
-648.502
3402.18
-1284.52
3327.57
-1897.22
3182.63
-2478.8
2989.55
-3025.35
2774.64
-3536.74
2562.83
-4015.99
2373.44
-4468.12
2218.22
-4899.05
2101.29
-5314.62
2020.84
-5719.97
1971.25
-6119.17
1945.32
-6515.22
1935.91
-6910.13
1936.92
-7305.11
1943.69
-7700.81
1952.98
-8097.51
1962.76
-8495.23
1971.88
-8893.9
1979.76
-9293.34
1986.2
-9693.37
1991.19
-10093.8
1994.81
-10494.4
1997.19
-10895.1
1998.46
-11295.7
1998.73
-11696
1998.1
-12095.9
1996.66
-12495.2
1994.49
-12893.9
1991.65
-13291.9
1988.2
-13689
1984.19
-14085.1
1979.65
-14480.2
1974.62
-14874.1
1969.13
-15266.9
1963.21
-15658.3
1956.87
-16048.4
1950.15
-16437
1943.05
-16824.2
1935.59
-17209.7
1927.79
-17593.6
1919.65
-17975.8
1911.2
-18356.3
1902.44
-18734.9
1893.38
-19111.7
1884.02
-19486.5
1874.38
-19859.3
1864.47
-20230.1
1854.28
-20598.8
1843.83
-20965.3
1833.12
-21329.7
1822.15
-21691.8
1810.94
-22051.6
1799.49
-22409
1787.79
-22764.1
1775.86
-23116.8
1763.69
-23466.9
1751.3
-23814.6
1738.69
-24159.7
1725.86
-24502.1
1712.81
-24842
1699.54
-25179.1
1686.07
-25513.5
1672.39
-25845.1
1658.51
-26173.9
1644.42
-26499.8
1630.14
-26822.9
1615.66
-27143
1601
-27460.1
1586.14
-27774.3
1571.1
-28085.4
1555.88
-28393.4
1540.47
-28698.3
1524.89
-29000
1509.14
-29298.6
1493.21
-29594
1477.12
-29886.1
1460.86
-30174.9
1444.44
-30460.4
1427.86
-30742.6
1411.12
-31021.4
1394.23
-31296.8
1377.18
-31568.7
1359.99
-31837.2
1342.65
-32102.2
1325.17
-32363.6
1307.55
-32621.6
1289.79
-32875.9
1271.9
-33126.6
1253.88
-33373.8
1235.73
-33617.2
1217.45
-33857
1199.05
-34093.1
1180.54
-34325.4
1161.9
-34554.1
1143.15
-34778.9
1124.29
-35000
1105.33
-35217.2
1086.26
-35430.6
1067.08
-35640.2
1047.81
-35845.9
1028.44
-36047.7
1008.98
-36245.6
989.429
-36439.5
969.791
-36629.5
950.07
-36815.6
930.267
-36997.7
910.386
-37175.8
890.431
-37349.9
870.404
-37520
850.307
-37686.1
830.146
-37848.1
809.921
-38006.1
789.636
-38160
769.295
-38309.8
748.9
-38455.5
728.454
-38597.2
707.961
-38734.7
687.422
-38868.1
666.842
-38997.4
646.223
-39122.6
625.569
-39243.6
604.882
-39360.5
584.165
-39473.3
563.421
-39581.9
542.653
-39686.3
521.864
-39786.6
501.058
-39882.7
480.236
-39974.7
459.402
-40062.5
438.559
-40146.1
417.709
-40225.6
396.856
-40300.9
376.002
-40372
355.151
-40438.9
334.304
-40501.7
313.466
-40560.4
292.637
-40614.8
271.823
-40665.1
251.024
-40711.3
230.245
-40753.3
209.486
-40791.2
188.753
-40824.9
168.046
-40854.5
147.368
-40879.9
126.723
-40901.3
106.113
-40918.5
85.5395
-40931.6
65.0064
-40940.7
44.5157
-40945.6
24.0698
-40946.5
3.67141
-40943.3
-16.6772
-40936
-36.9736
-40924.7
-57.2154
-40909.4
-77.4002
-40890
-97.5257
-40866.6
-117.59
-40839.3
-137.59
-40807.9
-157.524
-40772.6
-177.389
-40733.3
-197.185
-40690.1
-216.907
-40642.9
-236.555
-40591.8
-256.126
-40536.9
-275.619
-40478
-295.03
-40415.3
-314.359
-40348.7
-333.603
-40278.3
-352.76
-40204.1
-371.829
-40126.1
-390.808
-40044.4
-409.694
-39958.8
-428.486
-39869.6
-447.183
-39776.6
-465.782
-39679.9
-484.283
-39579.5
-502.683
-39475.5
-520.98
-39367.8
-539.174
-39256.5
-557.262
-39141.7
-575.244
-39023.2
-593.118
-38901.2
-610.881
-38775.7
-628.534
-38646.7
-646.075
-38514.1
-663.502
-38378.1
-680.813
-38238.7
-698.009
-38095.9
-715.087
-37949.7
-732.047
-37800.1
-748.887
-37647.1
-765.607
-37490.9
-782.204
-37331.3
-798.679
-37168.5
-815.03
-37002.4
-831.256
-36833.1
-847.356
-36660.6
-863.33
-36485
-879.177
-36306.2
-894.895
-36124.3
-910.484
-35939.3
-925.943
-35751.2
-941.271
-35560.1
-956.469
-35366
-971.534
-35168.8
-986.467
-34968.8
-1001.27
-34765.8
-1015.93
-34559.9
-1030.46
-34351.1
-1044.86
-34139.4
-1059.12
-33925
-1073.25
-33707.7
-1087.24
-33487.7
-1101.09
-33264.9
-1114.81
-33039.4
-1128.39
-32811.2
-1141.83
-32580.3
-1155.14
-32346.9
-1168.3
-32110.8
-1181.33
-31872.1
-1194.22
-31630.9
-1206.97
-31387.2
-1219.58
-31140.9
-1232.05
-30892.2
-1244.38
-30641.1
-1256.58
-30387.5
-1268.63
-30131.6
-1280.55
-29873.3
-1292.32
-29612.7
-1303.96
-29349.8
-1315.46
-29084.6
-1326.81
-28817.1
-1338.03
-28547.5
-1349.11
-28275.6
-1360.05
-28001.6
-1370.85
-27725.5
-1381.51
-27447.3
-1392.03
-27166.9
-1402.41
-26884.6
-1412.66
-26600.2
-1422.77
-26313.8
-1432.73
-26025.5
-1442.56
-25735.2
-1452.26
-25443
-1461.81
-25148.9
-1471.23
-24852.9
-1480.51
-24555.2
-1489.65
-24255.6
-1498.66
-23954.2
-1507.53
-23651.1
-1516.26
-23346.3
-1524.86
-23039.8
-1533.32
-22731.6
-1541.65
-22421.8
-1549.84
-22110.4
-1557.9
-21797.4
-1565.83
-21482.8
-1573.62
-21166.7
-1581.27
-20849.1
-1588.8
-20530
-1596.19
-20209.4
-1603.45
-19887.4
-1610.57
-19564.1
-1617.57
-19239.3
-1624.43
-18913.2
-1631.16
-18585.8
-1637.76
-18257.1
-1644.24
-17927.1
-1650.58
-17595.9
-1656.79
-17263.5
-1662.87
-16929.8
-1668.83
-16595
-1674.65
-16259.1
-1680.35
-15922
-1685.92
-15583.9
-1691.36
-15244.7
-1696.68
-14904.4
-1701.87
-14563.2
-1706.93
-14220.9
-1711.87
-13877.7
-1716.68
-13533.5
-1721.37
-13188.5
-1725.93
-12842.5
-1730.37
-12495.7
-1734.69
-12148.1
-1738.88
-11799.6
-1742.95
-11450.3
-1746.89
-11100.3
-1750.72
-10749.5
-1754.42
-10398
-1758
-10045.9
-1761.46
-9693.02
-1764.8
-9339.53
-1768.01
-8985.42
-1771.11
-8630.72
-1774.09
-8275.44
-1776.95
-7919.61
-1779.69
-7563.26
-1782.32
-7206.4
-1784.82
-6849.07
-1787.21
-6491.28
-1789.48
-6133.06
-1791.64
-5774.43
-1793.68
-5415.42
-1795.6
-5056.05
-1797.4
-4696.34
-1799.09
-4336.31
-1800.66
-3975.99
-1802.12
-3615.41
-1803.46
-3254.58
-1804.68
-2893.52
-1805.78
-2532.28
-1806.77
-2170.85
-1807.63
-1809.28
-1808.38
-1447.58
-1809.01
-1085.78
-1809.52
-723.902
-1809.92
-361.966
-1810.19
-1810.36
-630.214
4031.95
-1249.43
3946.35
-1848.31
3781.07
-2420.05
3560.86
-2961.02
3315.18
-3470.82
3072.21
-3951.74
2853.94
-4407.89
2673.95
-4844.27
2537.25
-5265.92
2442.08
-5677.37
2382.28
-6082.31
2349.84
-6483.5
2336.68
-6882.85
2335.86
-7281.59
2342.02
-7680.43
2351.4
-8079.7
2361.63
-8479.54
2371.3
-8879.93
2379.73
-9280.77
2386.62
-9681.94
2391.94
-10083.3
2395.75
-10484.7
2398.17
-10886
2399.33
-11287
2399.36
-11687.7
2398.37
-12087.9
2396.44
-12487.5
2393.67
-12886.4
2390.13
-13284.5
2385.87
-13681.7
2380.96
-14077.9
2375.42
-14473
2369.31
-14866.9
2362.66
-15259.6
2355.5
-15651
2347.85
-16041
2339.74
-16429.6
2331.18
-16816.6
2322.2
-17202.1
2312.81
-17585.9
2303.03
-17967.9
2292.87
-18348.3
2282.34
-18726.7
2271.45
-19103.3
2260.21
-19478
2248.63
-19850.7
2236.72
-20221.3
2224.48
-20589.8
2211.94
-20956.2
2199.08
-21320.4
2185.91
-21682.3
2172.45
-22041.9
2158.7
-22399.2
2144.66
-22754.1
2130.34
-23106.6
2115.75
-23456.6
2100.88
-23804
2085.74
-24148.9
2070.34
-24491.2
2054.68
-24830.8
2038.76
-25167.8
2022.59
-25502
2006.18
-25833.4
1989.52
-26162
1972.62
-26487.8
1955.48
-26810.6
1938.11
-27130.5
1920.51
-27447.5
1902.69
-27761.4
1884.64
-28072.4
1866.38
-28380.2
1847.89
-28684.9
1829.2
-28986.5
1810.3
-29284.9
1791.19
-29580
1771.88
-29872
1752.38
-30160.6
1732.67
-30445.9
1712.78
-30727.9
1692.7
-31006.5
1672.43
-31281.7
1651.98
-31553.5
1631.36
-31821.8
1610.56
-32086.6
1589.58
-32347.9
1568.44
-32605.6
1547.14
-32859.8
1525.68
-33110.4
1504.05
-33357.3
1482.28
-33600.6
1460.35
-33840.2