/*--------------------------------*- C++ -*----------------------------------*\
| =========                 |                                                 |
| \\      /  F ield         | OpenFOAM: The Open Source CFD Toolbox           |
|  \\    /   O peration     | Version:  2212                                  |
|   \\  /    A nd           | Website:  www.openfoam.com                      |
|    \\/     M anipulation  |                                                 |
\*---------------------------------------------------------------------------*/
FoamFile
{
    version     2.0;
    format      ascii;
    arch        "LSB;label=32;scalar=64";
    class       volScalarField;
    location    "340";
    object      p_rgh;
}
// * * * * * * * * * * * * * * * * * * * * * * * * * * * * * * * * * * * * * //

dimensions      [1 -1 -2 0 0 0 0];

internalField   nonuniform List<scalar> 
204800
(
18.6582
18.6485
18.6293
18.6006
18.5627
18.5157
18.4602
18.3963
18.3245
18.2453
18.159
18.0663
17.9675
17.8633
17.754
17.6401
17.5222
17.4008
17.2762
17.1488
17.0192
16.8877
16.7546
16.6203
16.4851
16.3493
16.2133
16.0772
15.9414
15.806
15.6714
15.5378
15.4053
15.2742
15.1446
15.0168
14.8909
14.7671
14.6456
14.5265
14.4099
14.2961
14.1851
14.077
13.972
13.8701
13.7716
13.6765
13.5848
13.4967
13.4123
13.3316
13.2546
13.1816
13.1124
13.0472
12.986
12.9289
12.8759
12.827
12.7822
12.7416
12.7051
12.6729
12.6449
12.621
12.6014
12.586
12.5747
12.5676
12.5647
12.5659
12.5712
12.5806
12.594
12.6114
12.6328
12.6582
12.6874
12.7204
12.7572
12.7978
12.8421
12.8899
12.9414
12.9963
13.0548
13.1166
13.1817
13.25
13.3216
13.3963
13.474
13.5548
13.6384
13.7249
13.8142
13.9061
14.0007
14.0979
14.1975
14.2996
14.4039
14.5106
14.6194
14.7304
14.8434
14.9583
15.0752
15.1939
15.3144
15.4366
15.5604
15.6857
15.8125
15.9408
16.0704
16.2013
16.3334
16.4666
16.601
16.7364
16.8727
17.01
17.1481
17.287
17.4266
17.567
17.7079
17.8494
17.9914
18.1339
18.2768
18.4201
18.5637
18.7075
18.8516
18.9959
19.1402
19.2847
19.4292
19.5738
19.7183
19.8627
20.007
20.1512
20.2952
20.439
20.5825
20.7257
20.8687
21.0113
21.1535
21.2953
21.4367
21.5777
21.7182
21.8581
21.9976
22.1364
22.2748
22.4125
22.5496
22.686
22.8218
22.957
23.0914
23.2251
23.3581
23.4904
23.6219
23.7526
23.8826
24.0117
24.1401
24.2676
24.3943
24.5201
24.6451
24.7692
24.8925
25.0148
25.1363
25.2569
25.3766
25.4953
25.6132
25.7301
25.8461
25.9611
26.0752
26.1884
26.3006
26.4118
26.5221
26.6315
26.7398
26.8472
26.9537
27.0591
27.1636
27.2671
27.3697
27.4712
27.5718
27.6714
27.77
27.8677
27.9643
28.06
28.1547
28.2485
28.3412
28.433
28.5238
28.6136
28.7024
28.7903
28.8772
28.9631
29.0481
29.1321
29.2151
29.2972
29.3783
29.4584
29.5376
29.6158
29.6931
29.7694
29.8448
29.9192
29.9927
30.0653
30.1369
30.2076
30.2773
30.3461
30.414
30.481
30.547
30.6122
30.6764
30.7397
30.8021
30.8636
30.9241
30.9838
31.0426
31.1005
31.1575
31.2136
31.2688
31.3231
31.3766
31.4291
31.4808
31.5316
31.5816
31.6307
31.6789
31.7263
31.7728
31.8184
31.8632
31.9071
31.9502
31.9925
32.0339
32.0744
32.1142
32.1531
32.1911
32.2283
32.2647
32.3003
32.3351
32.369
32.4021
32.4344
32.4658
32.4965
32.5263
32.5554
32.5836
32.611
32.6376
32.6634
32.6885
32.7127
32.7361
32.7587
32.7805
32.8016
32.8218
32.8413
32.8599
32.8778
32.8949
32.9112
32.9267
32.9415
32.9554
32.9686
32.981
32.9926
33.0035
33.0135
33.0228
33.0313
33.0391
33.046
33.0522
33.0576
33.0623
33.0661
33.0692
33.0715
33.0731
33.0739
18.66
18.6495
18.6288
18.598
18.5575
18.5076
18.4487
18.3815
18.3063
18.2238
18.1346
18.0391
17.9379
17.8315
17.7204
17.6052
17.4861
17.3638
17.2385
17.1107
16.9808
16.8491
16.716
16.5817
16.4466
16.311
16.1752
16.0393
15.9038
15.7687
15.6344
15.501
15.3688
15.238
15.1088
14.9812
14.8557
14.7322
14.6109
14.4921
14.3758
14.2622
14.1514
14.0436
13.9388
13.8373
13.739
13.6441
13.5526
13.4648
13.3805
13.3
13.2233
13.1504
13.0814
13.0164
12.9554
12.8984
12.8455
12.7967
12.7521
12.7116
12.6753
12.6432
12.6152
12.5915
12.572
12.5566
12.5454
12.5384
12.5355
12.5368
12.5421
12.5515
12.565
12.5824
12.6038
12.6291
12.6583
12.6914
12.7282
12.7687
12.8129
12.8608
12.9122
12.9671
13.0254
13.0872
13.1522
13.2205
13.292
13.3666
13.4442
13.5249
13.6084
13.6948
13.7839
13.8757
13.9702
14.0672
14.1667
14.2686
14.3728
14.4793
14.588
14.6988
14.8116
14.9264
15.0431
15.1616
15.2819
15.4039
15.5275
15.6526
15.7793
15.9073
16.0367
16.1674
16.2993
16.4323
16.5664
16.7016
16.8377
16.9748
17.1127
17.2513
17.3907
17.5308
17.6715
17.8128
17.9546
18.0968
18.2395
18.3825
18.5258
18.6695
18.8133
18.9573
19.1014
19.2456
19.3899
19.5342
19.6784
19.8226
19.9667
20.1106
20.2543
20.3979
20.5411
20.6841
20.8268
20.9692
21.1112
21.2527
21.3939
21.5346
21.6748
21.8145
21.9537
22.0923
22.2304
22.3679
22.5047
22.6409
22.7765
22.9114
23.0456
23.179
23.3118
23.4438
23.5751
23.7056
23.8353
23.9642
24.0923
24.2196
24.3461
24.4717
24.5964
24.7203
24.8433
24.9655
25.0867
25.2071
25.3265
25.4451
25.5627
25.6794
25.7951
25.91
26.0239
26.1368
26.2488
26.3598
26.4699
26.5791
26.6872
26.7944
26.9007
27.0059
27.1102
27.2135
27.3159
27.4173
27.5176
27.6171
27.7155
27.813
27.9094
28.0049
28.0995
28.193
28.2856
28.3772
28.4678
28.5574
28.6461
28.7338
28.8206
28.9063
28.9911
29.0749
29.1578
29.2397
29.3207
29.4007
29.4797
29.5578
29.6349
29.7111
29.7863
29.8606
29.934
30.0064
30.0778
30.1484
30.218
30.2867
30.3544
30.4213
30.4872
30.5522
30.6163
30.6795
30.7417
30.8031
30.8635
30.9231
30.9818
31.0395
31.0964
31.1524
31.2075
31.2617
31.3151
31.3676
31.4192
31.4699
31.5197
31.5687
31.6169
31.6641
31.7105
31.7561
31.8008
31.8446
31.8877
31.9298
31.9711
32.0116
32.0513
32.0901
32.1281
32.1652
32.2015
32.237
32.2717
32.3056
32.3386
32.3708
32.4022
32.4328
32.4626
32.4916
32.5198
32.5471
32.5737
32.5995
32.6244
32.6486
32.672
32.6946
32.7163
32.7373
32.7575
32.777
32.7956
32.8134
32.8305
32.8468
32.8623
32.877
32.8909
32.9041
32.9164
32.928
32.9388
32.9489
32.9582
32.9667
32.9744
32.9813
32.9875
32.9929
32.9975
33.0014
33.0045
33.0068
33.0083
33.0091
18.6341
18.6237
18.6033
18.5727
18.5325
18.483
18.4245
18.3577
18.283
18.2009
18.1121
18.017
17.9162
17.8102
17.6994
17.5844
17.4657
17.3436
17.2185
17.091
16.9612
16.8297
16.6968
16.5627
16.4278
16.2923
16.1566
16.0209
15.8855
15.7506
15.6164
15.4832
15.3511
15.2205
15.0913
14.964
14.8385
14.7151
14.594
14.4753
14.3592
14.2457
14.1351
14.0274
13.9227
13.8213
13.7231
13.6283
13.537
13.4492
13.3651
13.2847
13.2081
13.1353
13.0665
13.0016
12.9407
12.8838
12.831
12.7824
12.7378
12.6974
12.6612
12.6292
12.6014
12.5778
12.5583
12.5431
12.532
12.5251
12.5223
12.5236
12.5291
12.5386
12.5521
12.5697
12.5912
12.6166
12.6459
12.679
12.7159
12.7566
12.8009
12.8488
12.9003
12.9553
13.0137
13.0755
13.1406
13.209
13.2806
13.3553
13.433
13.5137
13.5973
13.6837
13.773
13.8649
13.9594
14.0565
14.156
14.258
14.3623
14.4688
14.5776
14.6884
14.8013
14.9162
15.0329
15.1515
15.2719
15.3939
15.5175
15.6427
15.7694
15.8975
16.0269
16.1577
16.2896
16.4227
16.5568
16.692
16.8282
16.9653
17.1032
17.2419
17.3813
17.5215
17.6622
17.8035
17.9453
18.0876
18.2303
18.3733
18.5167
18.6603
18.8041
18.9481
19.0923
19.2365
19.3808
19.5251
19.6694
19.8135
19.9576
20.1015
20.2453
20.3888
20.5321
20.6751
20.8178
20.9602
21.1021
21.2437
21.3849
21.5256
21.6658
21.8055
21.9447
22.0833
22.2213
22.3588
22.4956
22.6318
22.7674
22.9023
23.0364
23.1699
23.3027
23.4347
23.5659
23.6964
23.8261
23.955
24.0831
24.2104
24.3368
24.4624
24.5871
24.711
24.834
24.9561
25.0773
25.1977
25.3171
25.4356
25.5532
25.6699
25.7856
25.9005
26.0143
26.1272
26.2392
26.3502
26.4603
26.5694
26.6776
26.7847
26.8909
26.9962
27.1005
27.2038
27.3061
27.4074
27.5078
27.6072
27.7056
27.803
27.8995
27.995
28.0895
28.183
28.2755
28.3671
28.4577
28.5473
28.636
28.7237
28.8104
28.8961
28.9809
29.0647
29.1475
29.2294
29.3103
29.3903
29.4693
29.5474
29.6245
29.7006
29.7759
29.8501
29.9235
29.9958
30.0673
30.1378
30.2074
30.2761
30.3438
30.4106
30.4765
30.5415
30.6056
30.6687
30.731
30.7923
30.8528
30.9123
30.971
31.0287
31.0856
31.1415
31.1966
31.2508
31.3042
31.3566
31.4082
31.4589
31.5087
31.5577
31.6058
31.6531
31.6995
31.745
31.7897
31.8335
31.8765
31.9187
31.96
32.0005
32.0401
32.0789
32.1169
32.154
32.1903
32.2258
32.2605
32.2943
32.3274
32.3596
32.391
32.4215
32.4513
32.4803
32.5085
32.5358
32.5624
32.5881
32.6131
32.6372
32.6606
32.6832
32.7049
32.7259
32.7461
32.7655
32.7842
32.802
32.8191
32.8353
32.8508
32.8655
32.8794
32.8926
32.905
32.9166
32.9274
32.9374
32.9467
32.9552
32.9629
32.9698
32.976
32.9814
32.986
32.9899
32.993
32.9953
32.9968
32.9976
18.6034
18.5928
18.5718
18.5404
18.4992
18.4484
18.3887
18.3205
18.2444
18.161
18.0709
17.9746
17.8728
17.7658
17.6543
17.5387
17.4194
17.297
17.1717
17.044
16.9143
16.7828
16.6499
16.516
16.3813
16.2461
16.1106
15.9753
15.8401
15.7055
15.5717
15.4388
15.3071
15.1768
15.048
14.921
14.7958
14.6728
14.552
14.4337
14.3178
14.2047
14.0943
13.987
13.8826
13.7815
13.6836
13.5891
13.4981
13.4106
13.3268
13.2466
13.1703
13.0978
13.0292
12.9645
12.9038
12.8472
12.7946
12.7462
12.7019
12.6617
12.6257
12.5939
12.5662
12.5428
12.5235
12.5084
12.4975
12.4908
12.4882
12.4896
12.4952
12.5049
12.5186
12.5362
12.5578
12.5834
12.6128
12.646
12.683
12.7238
12.7681
12.8162
12.8677
12.9228
12.9813
13.0432
13.1083
13.1768
13.2484
13.3231
13.4008
13.4816
13.5652
13.6517
13.7409
13.8328
13.9274
14.0244
14.124
14.2259
14.3302
14.4368
14.5455
14.6563
14.7692
14.884
15.0007
15.1192
15.2395
15.3615
15.4851
15.6102
15.7368
15.8649
15.9942
16.1249
16.2567
16.3897
16.5238
16.6589
16.795
16.932
17.0698
17.2084
17.3477
17.4877
17.6283
17.7695
17.9112
18.0534
18.1959
18.3388
18.4821
18.6256
18.7693
18.9132
19.0572
19.2013
19.3454
19.4896
19.6337
19.7777
19.9217
20.0654
20.209
20.3524
20.4956
20.6384
20.7809
20.9231
21.065
21.2064
21.3474
21.4879
21.628
21.7675
21.9065
22.045
22.1829
22.3202
22.4569
22.5929
22.7283
22.863
22.997
23.1303
23.2629
23.3948
23.5258
23.6562
23.7857
23.9144
24.0424
24.1695
24.2957
24.4212
24.5457
24.6694
24.7923
24.9142
25.0353
25.1555
25.2748
25.3931
25.5106
25.6271
25.7427
25.8573
25.971
26.0838
26.1956
26.3065
26.4164
26.5253
26.6333
26.7404
26.8464
26.9515
27.0556
27.1588
27.2609
27.3621
27.4624
27.5616
27.6599
27.7572
27.8535
27.9488
28.0432
28.1366
28.229
28.3204
28.4109
28.5004
28.5889
28.6765
28.763
28.8486
28.9333
29.017
29.0997
29.1815
29.2623
29.3421
29.421
29.4989
29.5759
29.652
29.7271
29.8012
29.8744
29.9467
30.018
30.0885
30.1579
30.2265
30.2941
30.3608
30.4266
30.4915
30.5555
30.6185
30.6807
30.7419
30.8023
30.8617
30.9203
30.9779
31.0347
31.0906
31.1456
31.1997
31.253
31.3053
31.3568
31.4075
31.4572
31.5061
31.5541
31.6013
31.6476
31.6931
31.7377
31.7815
31.8244
31.8665
31.9077
31.9482
31.9877
32.0265
32.0644
32.1014
32.1377
32.1731
32.2077
32.2415
32.2745
32.3067
32.338
32.3685
32.3983
32.4272
32.4553
32.4826
32.5091
32.5348
32.5598
32.5839
32.6072
32.6297
32.6515
32.6724
32.6926
32.712
32.7306
32.7484
32.7654
32.7816
32.7971
32.8118
32.8257
32.8388
32.8512
32.8627
32.8735
32.8836
32.8928
32.9013
32.909
32.9159
32.9221
32.9275
32.9321
32.9359
32.939
32.9413
32.9429
32.9436
18.5531
18.5427
18.522
18.4913
18.4507
18.4007
18.3419
18.2746
18.1994
18.117
18.0278
17.9324
17.8313
17.7251
17.6143
17.4993
17.3806
17.2587
17.1339
17.0066
16.8773
16.7462
16.6137
16.4801
16.3457
16.2108
16.0756
15.9405
15.8057
15.6714
15.5378
15.4052
15.2737
15.1437
15.0151
14.8884
14.7635
14.6407
14.5202
14.4021
14.2865
14.1736
14.0635
13.9564
13.8523
13.7514
13.6537
13.5594
13.4686
13.3814
13.2978
13.2179
13.1417
13.0694
13.0011
12.9366
12.8762
12.8197
12.7674
12.7192
12.6751
12.6351
12.5993
12.5677
12.5403
12.517
12.498
12.4831
12.4724
12.4658
12.4634
12.4651
12.4709
12.4807
12.4946
12.5125
12.5343
12.56
12.5896
12.623
12.6602
12.7011
12.7457
12.7939
12.8457
12.9009
12.9596
13.0217
13.087
13.1556
13.2274
13.3023
13.3802
13.4611
13.5449
13.6315
13.7209
13.813
13.9077
14.0049
14.1046
14.2067
14.3112
14.4178
14.5267
14.6377
14.7507
14.8656
14.9825
15.1011
15.2215
15.3436
15.4674
15.5926
15.7193
15.8475
15.9769
16.1077
16.2396
16.3727
16.5069
16.6421
16.7783
16.9154
17.0533
17.192
17.3314
17.4715
17.6122
17.7534
17.8952
18.0374
18.18
18.323
18.4663
18.6099
18.7536
18.8976
19.0416
19.1858
19.33
19.4742
19.6183
19.7624
19.9064
20.0502
20.1938
20.3372
20.4804
20.6233
20.7658
20.9081
21.0499
21.1913
21.3323
21.4729
21.613
21.7525
21.8916
22.03
22.1679
22.3052
22.4419
22.5779
22.7133
22.848
22.9821
23.1154
23.2479
23.3798
23.5109
23.6412
23.7707
23.8994
24.0273
24.1544
24.2807
24.4061
24.5306
24.6543
24.7772
24.8991
25.0201
25.1403
25.2595
25.3779
25.4953
25.6118
25.7274
25.842
25.9557
26.0684
26.1802
26.291
26.4009
26.5098
26.6178
26.7248
26.8308
26.9359
27.04
27.1431
27.2452
27.3464
27.4466
27.5458
27.6441
27.7413
27.8376
27.9329
28.0272
28.1206
28.213
28.3044
28.3948
28.4843
28.5728
28.6603
28.7468
28.8324
28.917
29.0007
29.0833
29.1651
29.2458
29.3256
29.4045
29.4824
29.5594
29.6354
29.7104
29.7846
29.8577
29.93
30.0013
30.0717
30.1411
30.2097
30.2773
30.3439
30.4097
30.4746
30.5385
30.6015
30.6636
30.7249
30.7852
30.8446
30.9031
30.9607
31.0175
31.0733
31.1283
31.1824
31.2356
31.288
31.3394
31.39
31.4398
31.4886
31.5367
31.5838
31.6301
31.6756
31.7201
31.7639
31.8068
31.8489
31.8901
31.9305
31.97
32.0087
32.0466
32.0837
32.1199
32.1553
32.1899
32.2237
32.2566
32.2888
32.3201
32.3506
32.3803
32.4092
32.4373
32.4646
32.4911
32.5168
32.5417
32.5658
32.5892
32.6117
32.6334
32.6543
32.6745
32.6939
32.7124
32.7302
32.7473
32.7635
32.7789
32.7936
32.8075
32.8206
32.833
32.8445
32.8553
32.8653
32.8746
32.8831
32.8908
32.8977
32.9038
32.9092
32.9139
32.9177
32.9208
32.9231
32.9246
32.9254
18.4955
18.4851
18.4643
18.4335
18.3928
18.3428
18.2838
18.2165
18.1412
18.0587
17.9694
17.8739
17.7729
17.6667
17.5559
17.441
17.3224
17.2006
17.076
16.949
16.8199
16.689
16.5568
16.4235
16.2895
16.1549
16.0202
15.8855
15.751
15.6171
15.4839
15.3517
15.2207
15.091
14.9629
14.8365
14.7121
14.5897
14.4696
14.3518
14.2367
14.1241
14.0144
13.9077
13.804
13.7034
13.6061
13.5122
13.4218
13.3349
13.2516
13.172
13.0962
13.0243
12.9562
12.8921
12.8319
12.7758
12.7238
12.6759
12.6321
12.5924
12.5569
12.5256
12.4984
12.4755
12.4567
12.4421
12.4316
12.4253
12.4232
12.4251
12.4311
12.4412
12.4553
12.4734
12.4955
12.5214
12.5513
12.5849
12.6223
12.6634
12.7082
12.7566
12.8086
12.864
12.9229
12.9851
13.0506
13.1194
13.1914
13.2664
13.3445
13.4256
13.5095
13.5963
13.6858
13.778
13.8728
13.9702
14.07
14.1723
14.2768
14.3836
14.4925
14.6036
14.7167
14.8317
14.9487
15.0674
15.1879
15.3101
15.4338
15.5592
15.6859
15.8141
15.9437
16.0744
16.2064
16.3396
16.4738
16.609
16.7452
16.8823
17.0202
17.1589
17.2983
17.4384
17.5791
17.7204
17.8621
18.0043
18.147
18.2899
18.4332
18.5767
18.7205
18.8644
19.0084
19.1525
19.2967
19.4408
19.5849
19.7289
19.8728
20.0166
20.1602
20.3035
20.4466
20.5894
20.7319
20.8741
21.0159
21.1572
21.2982
21.4386
21.5786
21.7181
21.857
21.9954
22.1332
22.2704
22.407
22.543
22.6783
22.8129
22.9468
23.08
23.2125
23.3442
23.4752
23.6054
23.7348
23.8634
23.9913
24.1182
24.2444
24.3697
24.4941
24.6177
24.7404
24.8623
24.9832
25.1033
25.2224
25.3406
25.4579
25.5743
25.6897
25.8043
25.9178
26.0305
26.1421
26.2529
26.3626
26.4715
26.5793
26.6862
26.7921
26.8971
27.001
27.104
27.2061
27.3071
27.4072
27.5063
27.6045
27.7016
27.7978
27.893
27.9872
28.0805
28.1727
28.264
28.3543
28.4437
28.5321
28.6195
28.7059
28.7914
28.8759
28.9595
29.0421
29.1237
29.2043
29.2841
29.3628
29.4406
29.5175
29.5934
29.6684
29.7424
29.8155
29.8877
29.9589
30.0292
30.0985
30.167
30.2345
30.3011
30.3668
30.4315
30.4954
30.5583
30.6204
30.6815
30.7417
30.8011
30.8595
30.9171
30.9737
31.0295
31.0844
31.1384
31.1916
31.2439
31.2953
31.3458
31.3955
31.4443
31.4922
31.5393
31.5855
31.6309
31.6754
31.7191
31.762
31.804
31.8451
31.8855
31.925
31.9636
32.0015
32.0385
32.0747
32.11
32.1446
32.1783
32.2112
32.2433
32.2746
32.305
32.3347
32.3636
32.3916
32.4189
32.4454
32.471
32.4959
32.52
32.5432
32.5657
32.5874
32.6083
32.6285
32.6478
32.6664
32.6841
32.7011
32.7173
32.7328
32.7474
32.7613
32.7744
32.7867
32.7983
32.809
32.819
32.8283
32.8367
32.8444
32.8513
32.8575
32.8629
32.8675
32.8713
32.8744
32.8767
32.8782
32.879
18.4229
18.4128
18.3925
18.3624
18.3227
18.2737
18.216
18.1498
18.0759
17.9947
17.9067
17.8125
17.7126
17.6076
17.4979
17.3839
17.2662
17.1453
17.0214
16.895
16.7665
16.6363
16.5046
16.3719
16.2383
16.1042
15.9699
15.8356
15.7015
15.568
15.4353
15.3034
15.1728
15.0435
14.9158
14.7898
14.6657
14.5437
14.4239
14.3065
14.1917
14.0795
13.9702
13.8637
13.7604
13.6602
13.5632
13.4696
13.3795
13.293
13.21
13.1308
13.0553
12.9837
12.9159
12.8521
12.7923
12.7365
12.6848
12.6372
12.5937
12.5543
12.5191
12.4881
12.4613
12.4386
12.4201
12.4058
12.3957
12.3897
12.3878
12.3901
12.3964
12.4068
12.4212
12.4396
12.462
12.4882
12.5183
12.5523
12.59
12.6314
12.6765
12.7251
12.7774
12.8331
12.8922
12.9547
13.0206
13.0896
13.1618
13.2372
13.3155
13.3968
13.481
13.5681
13.6579
13.7503
13.8454
13.943
14.0431
14.1455
14.2503
14.3573
14.4665
14.5778
14.6911
14.8064
14.9235
15.0425
15.1632
15.2856
15.4096
15.5351
15.662
15.7904
15.9201
16.0511
16.1833
16.3166
16.451
16.5864
16.7227
16.86
16.998
17.1369
17.2764
17.4167
17.5575
17.6989
17.8408
17.9831
18.1258
18.2689
18.4123
18.556
18.6998
18.8438
18.9879
19.1321
19.2764
19.4206
19.5648
19.7089
19.8529
19.9967
20.1404
20.2838
20.427
20.5699
20.7124
20.8546
20.9964
21.1378
21.2788
21.4193
21.5594
21.6989
21.8379
21.9763
22.1141
22.2514
22.388
22.524
22.6593
22.7939
22.9278
23.0611
23.1935
23.3253
23.4563
23.5865
23.7159
23.8445
23.9723
24.0993
24.2255
24.3508
24.4752
24.5988
24.7215
24.8433
24.9643
25.0843
25.2034
25.3216
25.4389
25.5553
25.6707
25.7852
25.8987
26.0113
26.123
26.2337
26.3435
26.4522
26.5601
26.6669
26.7728
26.8777
26.9817
27.0847
27.1867
27.2877
27.3877
27.4868
27.5849
27.682
27.7782
27.8733
27.9675
28.0607
28.153
28.2442
28.3345
28.4238
28.5122
28.5996
28.686
28.7714
28.8559
28.9394
29.0219
29.1035
29.1842
29.2638
29.3426
29.4203
29.4972
29.573
29.648
29.722
29.795
29.8671
29.9383
30.0086
30.0779
30.1463
30.2138
30.2803
30.346
30.4107
30.4745
30.5374
30.5994
30.6605
30.7207
30.78
30.8385
30.896
30.9526
31.0084
31.0632
31.1172
31.1703
31.2226
31.2739
31.3244
31.3741
31.4229
31.4708
31.5178
31.564
31.6094
31.6539
31.6975
31.7404
31.7823
31.8235
31.8638
31.9032
31.9419
31.9797
32.0167
32.0528
32.0882
32.1227
32.1564
32.1893
32.2214
32.2526
32.2831
32.3127
32.3416
32.3696
32.3969
32.4233
32.4489
32.4738
32.4978
32.5211
32.5436
32.5653
32.5862
32.6063
32.6256
32.6441
32.6619
32.6789
32.6951
32.7105
32.7251
32.739
32.7521
32.7644
32.776
32.7867
32.7967
32.8059
32.8144
32.8221
32.829
32.8351
32.8405
32.8451
32.849
32.852
32.8543
32.8559
32.8566
18.3421
18.3321
18.3121
18.2823
18.2431
18.1947
18.1375
18.0721
17.9989
17.9184
17.8312
17.7377
17.6385
17.5342
17.4251
17.3118
17.1947
17.0744
16.9511
16.8253
16.6973
16.5676
16.4365
16.3042
16.1712
16.0376
15.9038
15.77
15.6364
15.5034
15.3712
15.2398
15.1097
14.9809
14.8536
14.7281
14.6045
14.483
14.3637
14.2468
14.1324
14.0207
13.9118
13.8058
13.7029
13.6031
13.5066
13.4135
13.3238
13.2377
13.1551
13.0763
13.0013
12.93
12.8627
12.7993
12.7399
12.6845
12.6331
12.5859
12.5428
12.5038
12.469
12.4384
12.4119
12.3896
12.3715
12.3576
12.3478
12.3422
12.3407
12.3433
12.35
12.3607
12.3755
12.3942
12.4169
12.4435
12.4739
12.5082
12.5462
12.588
12.6333
12.6823
12.7349
12.7909
12.8504
12.9132
12.9793
13.0486
13.1211
13.1967
13.2754
13.357
13.4414
13.5287
13.6188
13.7115
13.8068
13.9047
14.005
14.1077
14.2127
14.32
14.4294
14.5409
14.6544
14.7699
14.8872
15.0064
15.1273
15.2498
15.374
15.4997
15.6268
15.7554
15.8852
16.0164
16.1487
16.2822
16.4167
16.5522
16.6887
16.8261
16.9643
17.1032
17.2429
17.3832
17.5242
17.6656
17.8076
17.95
18.0929
18.236
18.3795
18.5232
18.6671
18.8111
18.9553
19.0996
19.2439
19.3881
19.5324
19.6765
19.8205
19.9644
20.1081
20.2515
20.3947
20.5376
20.6801
20.8223
20.9642
21.1056
21.2465
21.387
21.5271
21.6666
21.8055
21.9439
22.0817
22.2189
22.3555
22.4915
22.6268
22.7613
22.8952
23.0284
23.1609
23.2926
23.4235
23.5537
23.683
23.8116
23.9394
24.0663
24.1924
24.3176
24.442
24.5655
24.6882
24.8099
24.9308
25.0507
25.1698
25.2879
25.4052
25.5214
25.6368
25.7512
25.8647
25.9772
26.0888
26.1994
26.3091
26.4178
26.5256
26.6323
26.7381
26.843
26.9469
27.0498
27.1517
27.2526
27.3526
27.4516
27.5496
27.6466
27.7427
27.8378
27.9319
28.025
28.1172
28.2083
28.2986
28.3878
28.476
28.5633
28.6497
28.735
28.8194
28.9028
28.9853
29.0668
29.1474
29.227
29.3056
29.3833
29.4601
29.5359
29.6107
29.6846
29.7576
29.8296
29.9008
29.9709
30.0402
30.1085
30.1759
30.2424
30.308
30.3726
30.4364
30.4992
30.5612
30.6222
30.6823
30.7416
30.7999
30.8574
30.9139
30.9696
31.0244
31.0784
31.1314
31.1836
31.2349
31.2853
31.3349
31.3836
31.4315
31.4785
31.5246
31.5699
31.6144
31.658
31.7008
31.7427
31.7838
31.824
31.8635
31.902
31.9398
31.9767
32.0129
32.0482
32.0826
32.1163
32.1491
32.1812
32.2124
32.2428
32.2724
32.3012
32.3292
32.3565
32.3829
32.4085
32.4333
32.4573
32.4806
32.503
32.5247
32.5455
32.5656
32.5849
32.6034
32.6212
32.6381
32.6543
32.6697
32.6843
32.6982
32.7112
32.7235
32.7351
32.7458
32.7558
32.765
32.7735
32.7811
32.788
32.7942
32.7996
32.8042
32.808
32.8111
32.8134
32.8149
32.8157
18.2493
18.2395
18.2201
18.1912
18.1529
18.1058
18.05
17.9861
17.9144
17.8355
17.7499
17.6579
17.5603
17.4574
17.3496
17.2376
17.1218
17.0025
16.8802
16.7553
16.6283
16.4994
16.369
16.2374
16.105
15.9721
15.8389
15.7056
15.5727
15.4402
15.3084
15.1776
15.048
14.9197
14.7929
14.6679
14.5448
14.4237
14.3049
14.1884
14.0745
13.9633
13.8548
13.7493
13.6468
13.5475
13.4514
13.3587
13.2694
13.1837
13.1016
13.0232
12.9486
12.8778
12.8108
12.7479
12.6889
12.6339
12.583
12.5361
12.4934
12.4549
12.4205
12.3903
12.3642
12.3423
12.3246
12.3111
12.3017
12.2965
12.2954
12.2984
12.3055
12.3167
12.3318
12.351
12.374
12.401
12.4319
12.4665
12.505
12.5471
12.5929
12.6423
12.6952
12.7516
12.8114
12.8746
12.9411
13.0109
13.0837
13.1597
13.2387
13.3207
13.4055
13.4932
13.5836
13.6767
13.7723
13.8705
13.9712
14.0742
14.1796
14.2872
14.3969
14.5087
14.6226
14.7383
14.856
14.9755
15.0967
15.2195
15.344
15.4699
15.5974
15.7262
15.8563
15.9877
16.1203
16.254
16.3888
16.5245
16.6613
16.7989
16.9373
17.0765
17.2164
17.3569
17.498
17.6397
17.7819
17.9245
18.0675
18.2108
18.3545
18.4983
18.6424
18.7866
18.931
19.0754
19.2198
19.3642
19.5086
19.6529
19.797
19.941
20.0848
20.2283
20.3716
20.5146
20.6573
20.7996
20.9415
21.083
21.224
21.3646
21.5047
21.6443
21.7833
21.9218
22.0597
22.1969
22.3336
22.4696
22.6049
22.7396
22.8735
23.0067
23.1392
23.2709
23.4019
23.5321
23.6615
23.7901
23.9179
24.0448
24.1709
24.2962
24.4206
24.5441
24.6667
24.7885
24.9094
25.0293
25.1484
25.2665
25.3837
25.5
25.6154
25.7298
25.8432
25.9558
26.0673
26.1779
26.2876
26.3963
26.504
26.6108
26.7166
26.8214
26.9252
27.0281
27.13
27.2309
27.3309
27.4298
27.5278
27.6248
27.7208
27.8159
27.91
28.0031
28.0952
28.1863
28.2765
28.3657
28.4539
28.5412
28.6275
28.7128
28.7972
28.8805
28.963
29.0445
29.125
29.2045
29.2831
29.3608
29.4375
29.5133
29.5881
29.662
29.7349
29.8069
29.878
29.9481
30.0173
30.0856
30.153
30.2194
30.285
30.3496
30.4133
30.4761
30.538
30.599
30.6591
30.7183
30.7766
30.834
30.8906
30.9462
31.001
31.0549
31.1079
31.16
31.2113
31.2617
31.3113
31.3599
31.4078
31.4547
31.5009
31.5461
31.5906
31.6341
31.6769
31.7188
31.7598
31.8
31.8394
31.878
31.9157
31.9526
31.9887
32.024
32.0584
32.0921
32.1249
32.1569
32.1881
32.2185
32.2481
32.2769
32.3049
32.3321
32.3585
32.384
32.4088
32.4329
32.4561
32.4785
32.5001
32.521
32.5411
32.5603
32.5789
32.5966
32.6135
32.6297
32.6451
32.6597
32.6735
32.6866
32.6989
32.7104
32.7211
32.7311
32.7403
32.7488
32.7564
32.7633
32.7695
32.7748
32.7794
32.7833
32.7863
32.7886
32.7901
32.7909
18.1479
18.1384
18.1194
18.091
18.0536
18.0073
17.9526
17.8898
17.8193
17.7417
17.6573
17.5666
17.4701
17.3684
17.2618
17.1509
17.0361
16.9178
16.7965
16.6725
16.5463
16.4182
16.2886
16.1578
16.0261
15.8938
15.7613
15.6287
15.4963
15.3645
15.2333
15.1031
14.9741
14.8464
14.7202
14.5957
14.4732
14.3527
14.2344
14.1185
14.0051
13.8944
13.7865
13.6815
13.5795
13.4807
13.3852
13.293
13.2042
13.119
13.0374
12.9595
12.8854
12.8151
12.7486
12.6861
12.6276
12.5731
12.5227
12.4764
12.4341
12.3961
12.3621
12.3324
12.3068
12.2854
12.2681
12.2551
12.2462
12.2414
12.2408
12.2442
12.2518
12.2634
12.279
12.2986
12.3221
12.3496
12.3808
12.4159
12.4548
12.4974
12.5436
12.5934
12.6468
12.7036
12.7638
12.8275
12.8944
12.9645
13.0378
13.1142
13.1936
13.2759
13.3611
13.4492
13.54
13.6334
13.7295
13.828
13.9291
14.0324
14.1381
14.2461
14.3561
14.4683
14.5825
14.6986
14.8165
14.9363
15.0578
15.181
15.3057
15.432
15.5597
15.6888
15.8192
15.9508
16.0837
16.2176
16.3526
16.4886
16.6256
16.7634
16.9021
17.0415
17.1816
17.3223
17.4636
17.6055
17.7479
17.8906
18.0338
18.1773
18.3211
18.4651
18.6093
18.7537
18.8982
19.0427
19.1873
19.3318
19.4763
19.6207
19.7649
19.909
20.0529
20.1965
20.3399
20.483
20.6257
20.7681
20.9101
21.0516
21.1927
21.3334
21.4735
21.6131
21.7522
21.8907
22.0286
22.1659
22.3026
22.4386
22.574
22.7086
22.8426
22.9758
23.1083
23.24
23.371
23.5012
23.6306
23.7592
23.8869
24.0139
24.14
24.2652
24.3896
24.5131
24.6357
24.7574
24.8783
24.9982
25.1172
25.2353
25.3525
25.4688
25.5841
25.6984
25.8119
25.9243
26.0359
26.1464
26.256
26.3647
26.4723
26.5791
26.6848
26.7896
26.8933
26.9962
27.098
27.1989
27.2987
27.3976
27.4956
27.5925
27.6885
27.7835
27.8775
27.9705
28.0626
28.1537
28.2438
28.3329
28.4211
28.5083
28.5945
28.6798
28.7641
28.8474
28.9298
29.0112
29.0916
29.1711
29.2496
29.3272
29.4039
29.4796
29.5543
29.6282
29.701
29.773
29.844
29.9141
29.9832
30.0514
30.1187
30.1851
30.2506
30.3152
30.3788
30.4416
30.5034
30.5643
30.6244
30.6835
30.7418
30.7991
30.8556
30.9112
30.9659
31.0198
31.0727
31.1248
31.176
31.2264
31.2759
31.3245
31.3723
31.4192
31.4653
31.5105
31.5549
31.5984
31.6411
31.683
31.724
31.7642
31.8035
31.842
31.8797
31.9166
31.9526
31.9879
32.0223
32.0559
32.0887
32.1206
32.1518
32.1822
32.2117
32.2405
32.2684
32.2956
32.3219
32.3475
32.3723
32.3963
32.4195
32.4419
32.4635
32.4843
32.5043
32.5236
32.5421
32.5598
32.5767
32.5929
32.6082
32.6228
32.6367
32.6497
32.662
32.6735
32.6842
32.6942
32.7034
32.7118
32.7195
32.7264
32.7325
32.7378
32.7424
32.7463
32.7493
32.7516
32.7531
32.7539
18.0364
18.0272
18.0087
17.9812
17.9448
17.8999
17.8466
17.7854
17.7166
17.6407
17.5581
17.4692
17.3744
17.2744
17.1695
17.0601
16.9467
16.8298
16.7097
16.587
16.4619
16.3348
16.2062
16.0763
15.9454
15.814
15.6822
15.5503
15.4187
15.2875
15.157
15.0275
14.899
14.7719
14.6463
14.5225
14.4005
14.2806
14.1628
14.0475
13.9347
13.8245
13.7172
13.6127
13.5113
13.413
13.318
13.2263
13.1381
13.0534
12.9724
12.895
12.8213
12.7515
12.6856
12.6236
12.5656
12.5117
12.4617
12.4159
12.3742
12.3366
12.3032
12.274
12.2489
12.228
12.2113
12.1987
12.1903
12.1861
12.186
12.1899
12.198
12.2101
12.2262
12.2463
12.2704
12.2983
12.3301
12.3657
12.4051
12.4481
12.4948
12.5452
12.599
12.6563
12.7171
12.7812
12.8486
12.9192
12.993
13.0698
13.1497
13.2325
13.3182
13.4067
13.498
13.5919
13.6884
13.7874
13.8889
13.9927
14.0988
14.2072
14.3177
14.4303
14.5448
14.6614
14.7797
14.8999
15.0218
15.1453
15.2705
15.3971
15.5252
15.6546
15.7854
15.9174
16.0506
16.1849
16.3202
16.4566
16.5938
16.732
16.8709
17.0106
17.151
17.292
17.4336
17.5758
17.7184
17.8614
18.0049
18.1486
18.2926
18.4369
18.5813
18.7259
18.8706
19.0154
19.1601
19.3049
19.4495
19.5941
19.7385
19.8828
20.0269
20.1707
20.3142
20.4574
20.6003
20.7428
20.8849
21.0266
21.1679
21.3086
21.4489
21.5886
21.7278
21.8664
22.0044
22.1418
22.2786
22.4147
22.5501
22.6848
22.8189
22.9522
23.0847
23.2165
23.3476
23.4778
23.6072
23.7359
23.8637
23.9907
24.1168
24.2421
24.3665
24.49
24.6127
24.7344
24.8553
24.9752
25.0943
25.2124
25.3296
25.4458
25.5612
25.6755
25.789
25.9014
26.013
26.1235
26.2331
26.3418
26.4494
26.5561
26.6619
26.7666
26.8704
26.9732
27.075
27.1759
27.2757
27.3746
27.4725
27.5694
27.6654
27.7603
27.8543
27.9473
28.0394
28.1304
28.2205
28.3096
28.3978
28.4849
28.5711
28.6563
28.7406
28.8239
28.9062
28.9876
29.068
29.1475
29.226
29.3035
29.3802
29.4558
29.5305
29.6043
29.6771
29.7491
29.82
29.8901
29.9592
30.0274
30.0946
30.161
30.2264
30.2909
30.3546
30.4173
30.4791
30.54
30.6
30.6591
30.7173
30.7746
30.8311
30.8866
30.9413
30.9951
31.048
31.1001
31.1513
31.2016
31.2511
31.2997
31.3474
31.3943
31.4403
31.4855
31.5299
31.5734
31.616
31.6578
31.6988
31.739
31.7783
31.8168
31.8545
31.8913
31.9273
31.9625
31.9969
32.0305
32.0632
32.0952
32.1263
32.1567
32.1862
32.2149
32.2429
32.27
32.2963
32.3219
32.3466
32.3706
32.3938
32.4162
32.4378
32.4586
32.4786
32.4978
32.5163
32.534
32.5509
32.567
32.5824
32.597
32.6108
32.6238
32.6361
32.6476
32.6583
32.6683
32.6775
32.6859
32.6935
32.7004
32.7065
32.7119
32.7165
32.7203
32.7234
32.7257
32.7272
32.7279
17.9165
17.9076
17.8896
17.8628
17.8273
17.7834
17.7314
17.6715
17.6042
17.5298
17.4487
17.3614
17.2682
17.1697
17.0663
16.9584
16.8464
16.7308
16.612
16.4904
16.3665
16.2405
16.1129
15.9839
15.854
15.7234
15.5924
15.4614
15.3305
15.2001
15.0704
14.9415
14.8138
14.6873
14.5624
14.4392
14.3179
14.1986
14.0816
13.9669
13.8547
13.7451
13.6384
13.5346
13.4338
13.3361
13.2417
13.1506
13.063
12.9789
12.8984
12.8216
12.7485
12.6793
12.614
12.5526
12.4951
12.4417
12.3924
12.3471
12.306
12.269
12.2362
12.2075
12.183
12.1626
12.1465
12.1345
12.1267
12.123
12.1234
12.128
12.1366
12.1492
12.1659
12.1866
12.2112
12.2397
12.272
12.3082
12.3481
12.3917
12.439
12.4898
12.5442
12.6021
12.6634
12.728
12.7959
12.8671
12.9413
13.0187
13.0991
13.1825
13.2687
13.3577
13.4494
13.5438
13.6408
13.7403
13.8422
13.9465
14.0531
14.1619
14.2729
14.3859
14.5009
14.6179
14.7367
14.8573
14.9796
15.1035
15.229
15.3561
15.4845
15.6144
15.7455
15.8779
16.0114
16.1461
16.2817
16.4184
16.556
16.6945
16.8337
16.9737
17.1144
17.2557
17.3976
17.5401
17.683
17.8263
17.9699
18.1139
18.2582
18.4027
18.5474
18.6922
18.8371
18.9821
19.127
19.272
19.4168
19.5616
19.7062
19.8506
19.9948
20.1388
20.2825
20.4258
20.5689
20.7115
20.8538
20.9956
21.1369
21.2778
21.4182
21.558
21.6973
21.836
21.9741
22.1116
22.2484
22.3846
22.5201
22.6549
22.789