/*--------------------------------*- C++ -*----------------------------------*\
| =========                 |                                                 |
| \\      /  F ield         | OpenFOAM: The Open Source CFD Toolbox           |
|  \\    /   O peration     | Version:  2212                                  |
|   \\  /    A nd           | Website:  www.openfoam.com                      |
|    \\/     M anipulation  |                                                 |
\*---------------------------------------------------------------------------*/
FoamFile
{
    version     2.0;
    format      ascii;
    arch        "LSB;label=32;scalar=64";
    class       volScalarField;
    location    "930";
    object      p_rgh_0;
}
// * * * * * * * * * * * * * * * * * * * * * * * * * * * * * * * * * * * * * //

dimensions      [1 -1 -2 0 0 0 0];

internalField   nonuniform List<scalar> 
204800
(
51.2008
51.1999
51.1982
51.1955
51.1916
51.1864
51.1798
51.1718
51.1624
51.1515
51.1391
51.1255
51.1106
51.0944
51.077
51.0585
51.0388
51.0179
50.996
50.9729
50.9487
50.9235
50.8972
50.8698
50.8413
50.8119
50.7814
50.7498
50.7173
50.6838
50.6493
50.6138
50.5773
50.54
50.5017
50.4625
50.4223
50.3813
50.3395
50.2968
50.2532
50.2088
50.1636
50.1177
50.0709
50.0234
49.9752
49.9262
49.8765
49.8262
49.7752
49.7235
49.6712
49.6183
49.5647
49.5107
49.456
49.4008
49.3451
49.2889
49.2322
49.1751
49.1175
49.0595
49.0011
48.9423
48.8832
48.8237
48.7639
48.7038
48.6434
48.5827
48.5218
48.4607
48.3994
48.3379
48.2762
48.2144
48.1524
48.0904
48.0283
47.9661
47.9039
47.8416
47.7794
47.7172
47.6549
47.5928
47.5307
47.4687
47.4068
47.3451
47.2834
47.222
47.1607
47.0996
47.0387
46.9781
46.9177
46.8576
46.7977
46.7382
46.6789
46.62
46.5615
46.5032
46.4454
46.388
46.3309
46.2743
46.2181
46.1623
46.107
46.0522
45.9979
45.944
45.8907
45.8378
45.7855
45.7338
45.6826
45.6319
45.5818
45.5324
45.4834
45.4351
45.3874
45.3404
45.2939
45.2481
45.2029
45.1584
45.1145
45.0713
45.0287
44.9868
44.9456
44.9051
44.8653
44.8261
44.7877
44.7499
44.7129
44.6766
44.6409
44.606
44.5718
44.5383
44.5055
44.4735
44.4422
44.4115
44.3816
44.3525
44.324
44.2963
44.2693
44.243
44.2174
44.1926
44.1684
44.145
44.1222
44.1002
44.0789
44.0583
44.0384
44.0191
44.0006
43.9827
43.9656
43.9491
43.9332
43.9181
43.9036
43.8897
43.8765
43.864
43.8521
43.8408
43.8301
43.8201
43.8107
43.8019
43.7937
43.786
43.779
43.7726
43.7667
43.7613
43.7566
43.7523
43.7487
43.7455
43.7429
43.7407
43.7391
43.738
43.7374
43.7372
43.7375
43.7383
43.7396
43.7412
43.7434
43.7459
43.7489
43.7522
43.756
43.7601
43.7647
43.7696
43.7749
43.7805
43.7864
43.7927
43.7993
43.8063
43.8135
43.821
43.8289
43.837
43.8453
43.8539
43.8628
43.8719
43.8812
43.8908
43.9006
43.9105
43.9207
43.9311
43.9416
43.9523
43.9631
43.9741
43.9852
43.9965
44.0079
44.0194
44.031
44.0427
44.0545
44.0663
44.0782
44.0902
44.1023
44.1144
44.1265
44.1386
44.1508
44.163
44.1752
44.1874
44.1996
44.2117
44.2239
44.236
44.248
44.2601
44.272
44.2839
44.2958
44.3075
44.3192
44.3308
44.3423
44.3537
44.365
44.3762
44.3873
44.3982
44.409
44.4197
44.4302
44.4406
44.4509
44.4609
44.4708
44.4806
44.4902
44.4996
44.5088
44.5178
44.5267
44.5353
44.5437
44.552
44.56
44.5678
44.5754
44.5828
44.59
44.5969
44.6037
44.6101
44.6164
44.6224
44.6282
44.6337
44.6389
44.644
44.6488
44.6533
44.6575
44.6616
44.6653
44.6688
44.672
44.675
44.6777
44.6801
44.6823
44.6842
44.6858
44.6872
44.6883
44.6891
44.6896
44.6899
51.1135
51.112
51.1089
51.1046
51.0989
51.0919
51.0838
51.0745
51.064
51.0523
51.0395
51.0255
51.0103
50.994
50.9765
50.9579
50.9382
50.9173
50.8954
50.8723
50.8482
50.823
50.7967
50.7694
50.741
50.7115
50.6811
50.6496
50.6171
50.5836
50.5492
50.5138
50.4774
50.4401
50.4019
50.3627
50.3227
50.2817
50.24
50.1973
50.1538
50.1095
50.0644
50.0185
49.9719
49.9245
49.8763
49.8274
49.7778
49.7276
49.6766
49.6251
49.5729
49.52
49.4666
49.4126
49.3581
49.303
49.2474
49.1913
49.1347
49.0777
49.0202
48.9623
48.904
48.8453
48.7863
48.7269
48.6672
48.6072
48.5469
48.4864
48.4256
48.3646
48.3034
48.242
48.1804
48.1187
48.0569
47.995
47.933
47.8709
47.8088
47.7467
47.6845
47.6224
47.5603
47.4983
47.4363
47.3744
47.3127
47.251
47.1895
47.1282
47.067
47.006
46.9453
46.8847
46.8245
46.7644
46.7047
46.6453
46.5861
46.5273
46.4689
46.4108
46.353
46.2957
46.2388
46.1822
46.1261
46.0705
46.0153
45.9606
45.9063
45.8526
45.7993
45.7466
45.6944
45.6427
45.5916
45.5411
45.4911
45.4417
45.3929
45.3447
45.2971
45.2501
45.2037
45.158
45.1129
45.0684
45.0246
44.9815
44.939
44.8972
44.8561
44.8156
44.7759
44.7368
44.6984
44.6608
44.6238
44.5875
44.552
44.5171
44.483
44.4495
44.4168
44.3848
44.3536
44.323
44.2932
44.2641
44.2357
44.208
44.181
44.1548
44.1293
44.1045
44.0804
44.057
44.0343
44.0123
43.991
43.9705
43.9506
43.9314
43.9129
43.8951
43.8779
43.8615
43.8457
43.8305
43.8161
43.8022
43.7891
43.7766
43.7647
43.7534
43.7428
43.7328
43.7234
43.7146
43.7064
43.6988
43.6918
43.6853
43.6795
43.6741
43.6694
43.6652
43.6615
43.6583
43.6557
43.6536
43.652
43.6509
43.6503
43.6501
43.6504
43.6512
43.6525
43.6541
43.6563
43.6588
43.6617
43.6651
43.6689
43.673
43.6776
43.6824
43.6877
43.6933
43.6993
43.7056
43.7122
43.7191
43.7263
43.7338
43.7416
43.7497
43.7581
43.7667
43.7755
43.7846
43.7939
43.8035
43.8132
43.8232
43.8333
43.8437
43.8542
43.8649
43.8757
43.8867
43.8978
43.909
43.9204
43.9319
43.9434
43.9551
43.9669
43.9787
43.9906
44.0026
44.0146
44.0267
44.0388
44.0509
44.0631
44.0752
44.0874
44.0996
44.1117
44.1239
44.136
44.1481
44.1601
44.1721
44.1841
44.196
44.2078
44.2195
44.2312
44.2428
44.2542
44.2656
44.2769
44.2881
44.2991
44.31
44.3208
44.3315
44.342
44.3524
44.3626
44.3726
44.3825
44.3923
44.4018
44.4112
44.4204
44.4294
44.4383
44.4469
44.4553
44.4635
44.4716
44.4794
44.487
44.4943
44.5015
44.5084
44.5151
44.5216
44.5278
44.5338
44.5396
44.5451
44.5504
44.5554
44.5601
44.5647
44.5689
44.5729
44.5767
44.5802
44.5834
44.5863
44.589
44.5915
44.5936
44.5955
44.5971
44.5985
44.5996
44.6004
44.6009
44.6012
51.0952
51.0936
51.0906
51.0862
51.0805
51.0736
51.0654
51.0561
51.0456
51.0339
51.021
51.007
50.9918
50.9754
50.9579
50.9393
50.9196
50.8987
50.8767
50.8537
50.8295
50.8043
50.778
50.7507
50.7222
50.6928
50.6623
50.6309
50.5984
50.5649
50.5304
50.495
50.4586
50.4213
50.3831
50.3439
50.3039
50.263
50.2212
50.1785
50.1351
50.0908
50.0457
49.9998
49.9531
49.9057
49.8575
49.8087
49.7591
49.7088
49.6579
49.6063
49.5541
49.5013
49.4479
49.3939
49.3393
49.2843
49.2287
49.1726
49.116
49.0589
49.0015
48.9436
48.8853
48.8266
48.7676
48.7082
48.6485
48.5885
48.5282
48.4677
48.4069
48.3459
48.2847
48.2233
48.1617
48.1001
48.0382
47.9763
47.9143
47.8523
47.7902
47.728
47.6659
47.6038
47.5417
47.4797
47.4177
47.3558
47.294
47.2324
47.1709
47.1096
47.0484
46.9874
46.9267
46.8662
46.8059
46.7459
46.6861
46.6267
46.5676
46.5088
46.4503
46.3922
46.3345
46.2772
46.2202
46.1637
46.1076
46.052
45.9968
45.9421
45.8878
45.8341
45.7809
45.7281
45.6759
45.6243
45.5732
45.5226
45.4727
45.4233
45.3745
45.3263
45.2787
45.2317
45.1853
45.1396
45.0945
45.0501
45.0063
44.9631
44.9207
44.8789
44.8378
44.7973
44.7576
44.7185
44.6801
44.6425
44.6055
44.5692
44.5337
44.4988
44.4647
44.4313
44.3986
44.3666
44.3353
44.3048
44.275
44.2459
44.2175
44.1898
44.1629
44.1366
44.1111
44.0863
44.0622
44.0388
44.0161
43.9942
43.9729
43.9523
43.9325
43.9133
43.8948
43.877
43.8598
43.8434
43.8276
43.8125
43.798
43.7842
43.771
43.7585
43.7466
43.7354
43.7248
43.7148
43.7054
43.6966
43.6884
43.6808
43.6738
43.6673
43.6615
43.6562
43.6514
43.6472
43.6435
43.6404
43.6378
43.6357
43.6341
43.6329
43.6323
43.6322
43.6325
43.6333
43.6345
43.6362
43.6383
43.6409
43.6439
43.6472
43.651
43.6551
43.6597
43.6646
43.6698
43.6754
43.6814
43.6877
43.6943
43.7012
43.7085
43.716
43.7238
43.7319
43.7402
43.7488
43.7577
43.7668
43.7761
43.7857
43.7954
43.8054
43.8155
43.8258
43.8364
43.847
43.8579
43.8688
43.8799
43.8912
43.9026
43.914
43.9256
43.9373
43.9491
43.9609
43.9728
43.9848
43.9968
44.0089
44.021
44.0331
44.0453
44.0574
44.0696
44.0818
44.0939
44.1061
44.1182
44.1303
44.1423
44.1543
44.1663
44.1782
44.19
44.2017
44.2134
44.225
44.2364
44.2478
44.2591
44.2703
44.2813
44.2922
44.303
44.3137
44.3242
44.3346
44.3448
44.3548
44.3647
44.3745
44.384
44.3934
44.4026
44.4116
44.4204
44.4291
44.4375
44.4457
44.4538
44.4616
44.4692
44.4765
44.4837
44.4906
44.4973
44.5038
44.51
44.516
44.5218
44.5273
44.5325
44.5376
44.5423
44.5468
44.5511
44.5551
44.5589
44.5623
44.5656
44.5685
44.5712
44.5736
44.5758
44.5777
44.5793
44.5807
44.5818
44.5826
44.5831
44.5834
51.0172
51.0154
51.0119
51.0068
51.0003
50.9925
50.9835
50.9735
50.9623
50.9501
50.9368
50.9225
50.907
50.8905
50.8728
50.8541
50.8343
50.8134
50.7914
50.7683
50.7441
50.7189
50.6926
50.6653
50.6369
50.6074
50.577
50.5455
50.5131
50.4796
50.4452
50.4098
50.3735
50.3362
50.298
50.2589
50.2189
50.178
50.1363
50.0937
50.0503
50.006
49.961
49.9151
49.8685
49.8211
49.7731
49.7242
49.6747
49.6245
49.5737
49.5221
49.47
49.4172
49.3639
49.31
49.2555
49.2005
49.145
49.0889
49.0324
48.9755
48.9181
48.8602
48.802
48.7434
48.6844
48.6251
48.5655
48.5056
48.4454
48.3849
48.3242
48.2633
48.2022
48.1409
48.0794
48.0178
47.956
47.8942
47.8323
47.7703
47.7083
47.6462
47.5842
47.5222
47.4601
47.3982
47.3363
47.2745
47.2128
47.1513
47.0898
47.0286
46.9675
46.9066
46.8459
46.7855
46.7253
46.6654
46.6057
46.5464
46.4873
46.4286
46.3702
46.3122
46.2546
46.1973
46.1405
46.084
46.028
45.9724
45.9173
45.8627
45.8085
45.7548
45.7017
45.649
45.5969
45.5453
45.4943
45.4438
45.3939
45.3446
45.2959
45.2477
45.2002
45.1533
45.107
45.0613
45.0163
44.9719
44.9282
44.8851
44.8427
44.801
44.7599
44.7195
44.6798
44.6408
44.6025
44.5649
44.528
44.4918
44.4563
44.4215
44.3874
44.3541
44.3214
44.2895
44.2583
44.2278
44.198
44.1689
44.1406
44.113
44.0861
44.0599
44.0344
44.0096
43.9856
43.9622
43.9396
43.9177
43.8964
43.8759
43.8561
43.8369
43.8185
43.8007
43.7836
43.7672
43.7514
43.7363
43.7219
43.7081
43.695
43.6825
43.6706
43.6594
43.6488
43.6388
43.6294
43.6207
43.6125
43.6049
43.5979
43.5915
43.5857
43.5804
43.5756
43.5714
43.5678
43.5647
43.5621
43.56
43.5584
43.5573
43.5567
43.5565
43.5569
43.5577
43.5589
43.5606
43.5627
43.5653
43.5682
43.5716
43.5754
43.5795
43.5841
43.589
43.5942
43.5999
43.6058
43.6121
43.6187
43.6256
43.6329
43.6404
43.6482
43.6563
43.6646
43.6732
43.6821
43.6912
43.7005
43.71
43.7198
43.7297
43.7399
43.7502
43.7607
43.7714
43.7822
43.7932
43.8043
43.8155
43.8269
43.8383
43.8499
43.8616
43.8733
43.8852
43.8971
43.909
43.921
43.9331
43.9452
43.9573
43.9695
43.9816
43.9938
44.0059
44.0181
44.0302
44.0423
44.0544
44.0664
44.0784
44.0904
44.1022
44.114
44.1258
44.1374
44.149
44.1605
44.1718
44.1831
44.1943
44.2053
44.2162
44.227
44.2376
44.2481
44.2585
44.2687
44.2787
44.2886
44.2984
44.3079
44.3173
44.3265
44.3355
44.3443
44.3529
44.3613
44.3695
44.3776
44.3854
44.3929
44.4003
44.4075
44.4144
44.4211
44.4275
44.4338
44.4397
44.4455
44.451
44.4563
44.4613
44.466
44.4705
44.4748
44.4788
44.4825
44.486
44.4892
44.4922
44.4949
44.4973
44.4995
44.5014
44.503
44.5044
44.5054
44.5063
44.5068
44.5071
50.9869
50.9852
50.9817
50.9767
50.9702
50.9625
50.9536
50.9436
50.9324
50.9202
50.9069
50.8925
50.877
50.8604
50.8427
50.824
50.8041
50.7832
50.7611
50.738
50.7138
50.6885
50.6622
50.6348
50.6064
50.577
50.5465
50.5151
50.4826
50.4491
50.4147
50.3793
50.3429
50.3057
50.2674
50.2283
50.1883
50.1474
50.1057
50.0631
50.0196
49.9754
49.9303
49.8845
49.8379
49.7905
49.7424
49.6936
49.6441
49.5939
49.543
49.4915
49.4393
49.3866
49.3332
49.2793
49.2248
49.1698
49.1143
49.0583
49.0017
48.9448
48.8874
48.8296
48.7713
48.7127
48.6538
48.5945
48.5348
48.4749
48.4147
48.3542
48.2935
48.2326
48.1715
48.1102
48.0487
47.9871
47.9254
47.8635
47.8016
47.7396
47.6776
47.6156
47.5535
47.4915
47.4295
47.3675
47.3056
47.2439
47.1822
47.1206
47.0592
46.9979
46.9369
46.876
46.8153
46.7549
46.6947
46.6348
46.5751
46.5158
46.4567
46.398
46.3396
46.2816
46.224
46.1667
46.1099
46.0534
45.9974
45.9419
45.8868
45.8321
45.778
45.7243
45.6712
45.6185
45.5664
45.5148
45.4638
45.4133
45.3634
45.3141
45.2654
45.2173
45.1697
45.1228
45.0766
45.0309
44.9859
44.9415
44.8978
44.8547
44.8123
44.7706
44.7296
44.6892
44.6495
44.6105
44.5722
44.5346
44.4977
44.4615
44.426
44.3913
44.3572
44.3238
44.2912
44.2593
44.2281
44.1976
44.1678
44.1388
44.1104
44.0828
44.0559
44.0298
44.0043
43.9795
43.9555
43.9322
43.9095
43.8876
43.8664
43.8459
43.8261
43.8069
43.7885
43.7707
43.7536
43.7372
43.7215
43.7064
43.692
43.6782
43.6651
43.6526
43.6407
43.6295
43.6189
43.609
43.5996
43.5909
43.5827
43.5751
43.5682
43.5617
43.5559
43.5506
43.5459
43.5417
43.5381
43.5349
43.5324
43.5303
43.5287
43.5276
43.527
43.5269
43.5272
43.528
43.5293
43.531
43.5331
43.5357
43.5387
43.542
43.5458
43.55
43.5545
43.5594
43.5647
43.5703
43.5763
43.5826
43.5892
43.5961
43.6034
43.6109
43.6187
43.6268
43.6352
43.6438
43.6526
43.6617
43.6711
43.6806
43.6904
43.7003
43.7105
43.7208
43.7313
43.742
43.7528
43.7638
43.7749
43.7861
43.7975
43.809
43.8206
43.8322
43.844
43.8558
43.8677
43.8797
43.8917
43.9038
43.9159
43.928
43.9401
43.9523
43.9645
43.9766
43.9888
44.0009
44.013
44.0251
44.0371
44.0491
44.0611
44.073
44.0848
44.0965
44.1081
44.1197
44.1312
44.1426
44.1538
44.165
44.176
44.1869
44.1977
44.2084
44.2189
44.2292
44.2394
44.2495
44.2594
44.2691
44.2787
44.288
44.2972
44.3062
44.315
44.3237
44.3321
44.3403
44.3483
44.3561
44.3637
44.3711
44.3782
44.3851
44.3918
44.3983
44.4045
44.4105
44.4163
44.4218
44.427
44.432
44.4368
44.4413
44.4456
44.4496
44.4533
44.4568
44.46
44.463
44.4657
44.4681
44.4703
44.4721
44.4738
44.4751
44.4762
44.477
44.4776
44.4778
50.9159
50.9141
50.9104
50.9051
50.8983
50.8903
50.8809
50.8705
50.859
50.8465
50.8329
50.8183
50.8026
50.7859
50.768
50.7492
50.7292
50.7082
50.6861
50.6629
50.6387
50.6134
50.587
50.5596
50.5312
50.5018
50.4713
50.4398
50.4074
50.3739
50.3395
50.3041
50.2678
50.2305
50.1923
50.1532
50.1132
50.0724
50.0306
49.9881
49.9446
49.9004
49.8554
49.8096
49.763
49.7157
49.6676
49.6188
49.5693
49.5192
49.4683
49.4168
49.3647
49.312
49.2587
49.2048
49.1504
49.0954
49.0399
48.9839
48.9275
48.8705
48.8132
48.7554
48.6972
48.6387
48.5798
48.5205
48.4609
48.401
48.3409
48.2805
48.2198
48.1589
48.0979
48.0366
47.9752
47.9136
47.8519
47.7902
47.7283
47.6664
47.6044
47.5424
47.4804
47.4184
47.3565
47.2946
47.2327
47.171
47.1094
47.0479
46.9865
46.9253
46.8643
46.8034
46.7428
46.6824
46.6223
46.5624
46.5028
46.4435
46.3845
46.3259
46.2676
46.2096
46.152
46.0948
46.038
45.9817
45.9257
45.8702
45.8151
45.7605
45.7064
45.6528
45.5997
45.5471
45.4951
45.4435
45.3926
45.3422
45.2923
45.243
45.1944
45.1463
45.0988
45.052
45.0057
44.9601
44.9152
44.8708
44.8272
44.7842
44.7418
44.7001
44.6591
44.6188
44.5792
44.5402
44.502
44.4644
44.4276
44.3914
44.356
44.3212
44.2872
44.2539
44.2213
44.1894
44.1582
44.1278
44.0981
44.0691
44.0408
44.0132
43.9863
43.9602
43.9348
43.9101
43.886
43.8628
43.8402
43.8183
43.7971
43.7766
43.7568
43.7377
43.7193
43.7015
43.6845
43.6681
43.6524
43.6373
43.6229
43.6092
43.5961
43.5837
43.5718
43.5607
43.5501
43.5402
43.5308
43.5221
43.514
43.5064
43.4994
43.4931
43.4872
43.482
43.4773
43.4731
43.4695
43.4664
43.4638
43.4617
43.4602
43.4591
43.4585
43.4584
43.4588
43.4596
43.4609
43.4626
43.4647
43.4673
43.4703
43.4737
43.4775
43.4817
43.4862
43.4911
43.4964
43.5021
43.508
43.5143
43.521
43.5279
43.5351
43.5427
43.5505
43.5586
43.567
43.5756
43.5844
43.5935
43.6029
43.6124
43.6222
43.6321
43.6423
43.6526
43.6631
43.6738
43.6846
43.6956
43.7067
43.718
43.7293
43.7408
43.7524
43.7641
43.7758
43.7876
43.7995
43.8115
43.8235
43.8356
43.8477
43.8598
43.872
43.8841
43.8963
43.9084
43.9206
43.9327
43.9448
43.9569
43.9689
43.9809
43.9929
44.0047
44.0165
44.0283
44.0399
44.0515
44.063
44.0743
44.0856
44.0967
44.1078
44.1187
44.1295
44.1401
44.1506
44.161
44.1712
44.1812
44.1911
44.2008
44.2104
44.2197
44.2289
44.2379
44.2467
44.2554
44.2638
44.272
44.28
44.2878
44.2954
44.3027
44.3099
44.3168
44.3235
44.3299
44.3362
44.3422
44.3479
44.3534
44.3587
44.3637
44.3684
44.3729
44.3772
44.3812
44.3849
44.3884
44.3916
44.3946
44.3973
44.3997
44.4019
44.4038
44.4054
44.4067
44.4078
44.4086
44.4092
44.4094
50.8776
50.8759
50.8722
50.8671
50.8604
50.8524
50.8432
50.8328
50.8214
50.8088
50.7952
50.7806
50.7649
50.7481
50.7302
50.7113
50.6913
50.6702
50.6481
50.6248
50.6006
50.5752
50.5489
50.5214
50.493
50.4635
50.433
50.4015
50.369
50.3355
50.3011
50.2657
50.2293
50.192
50.1538
50.1147
50.0747
50.0338
49.9921
49.9495
49.9061
49.8618
49.8168
49.771
49.7244
49.677
49.6289
49.5801
49.5306
49.4805
49.4296
49.3781
49.326
49.2733
49.2199
49.1661
49.1116
49.0566
49.0011
48.9451
48.8887
48.8317
48.7744
48.7166
48.6584
48.5998
48.5409
48.4816
48.422
48.3622
48.302
48.2416
48.1809
48.12
48.0589
47.9977
47.9362
47.8747
47.813
47.7512
47.6893
47.6274
47.5654
47.5034
47.4414
47.3794
47.3175
47.2556
47.1937
47.132
47.0704
47.0088
46.9475
46.8863
46.8252
46.7644
46.7038
46.6434
46.5833
46.5234
46.4638
46.4045
46.3455
46.2869
46.2285
46.1706
46.113
46.0558
45.999
45.9426
45.8867
45.8312
45.7761
45.7215
45.6674
45.6138
45.5607
45.5081
45.4561
45.4046
45.3536
45.3032
45.2533
45.2041
45.1554
45.1073
45.0599
45.013
44.9668
44.9212
44.8762
44.8319
44.7883
44.7453
44.7029
44.6613
44.6203
44.58
44.5403
44.5014
44.4631
44.4256
44.3888
44.3526
44.3172
44.2825
44.2485
44.2152
44.1826
44.1507
44.1196
44.0891
44.0594
44.0304
44.0021
43.9746
43.9477
43.9216
43.8962
43.8715
43.8475
43.8242
43.8016
43.7798
43.7586
43.7381
43.7183
43.6993
43.6809
43.6631
43.6461
43.6297
43.614
43.599
43.5846
43.5709
43.5578
43.5454
43.5336
43.5224
43.5119
43.5019
43.4926
43.4839
43.4758
43.4683
43.4613
43.455
43.4491
43.4439
43.4392
43.4351
43.4315
43.4284
43.4258
43.4238
43.4222
43.4212
43.4206
43.4205
43.4209
43.4217
43.423
43.4247
43.4269
43.4295
43.4325
43.4359
43.4397
43.4439
43.4485
43.4534
43.4587
43.4643
43.4703
43.4766
43.4833
43.4902
43.4975
43.505
43.5129
43.521
43.5294
43.538
43.5469
43.556
43.5653
43.5749
43.5847
43.5946
43.6048
43.6151
43.6257
43.6363
43.6472
43.6582
43.6693
43.6805
43.6919
43.7034
43.715
43.7267
43.7384
43.7503
43.7622
43.7742
43.7862
43.7983
43.8104
43.8225
43.8346
43.8468
43.859
43.8712
43.8833
43.8954
43.9076
43.9196
43.9317
43.9437
43.9556
43.9675
43.9793
43.991
44.0027
44.0143
44.0257
44.0371
44.0484
44.0595
44.0706
44.0815
44.0923
44.1029
44.1134
44.1238
44.134
44.1441
44.1539
44.1637
44.1732
44.1826
44.1918
44.2008
44.2096
44.2182
44.2266
44.2349
44.2429
44.2507
44.2583
44.2656
44.2728
44.2797
44.2864
44.2928
44.2991
44.3051
44.3108
44.3163
44.3216
44.3266
44.3313
44.3358
44.3401
44.3441
44.3478
44.3513
44.3545
44.3575
44.3602
44.3626
44.3648
44.3667
44.3683
44.3697
44.3707
44.3715
44.3721
44.3724
50.8117
50.81
50.8063
50.8011
50.7943
50.7861
50.7768
50.7662
50.7546
50.7419
50.7281
50.7133
50.6974
50.6805
50.6625
50.6435
50.6234
50.6022
50.58
50.5567
50.5324
50.507
50.4806
50.4532
50.4247
50.3952
50.3647
50.3331
50.3006
50.2671
50.2327
50.1973
50.1609
50.1236
50.0854
50.0463
50.0063
49.9654
49.9237
49.8811
49.8377
49.7934
49.7484
49.7026
49.656
49.6087
49.5606
49.5118
49.4623
49.4122
49.3613
49.3098
49.2577
49.205
49.1517
49.0978
49.0434
48.9884
48.933
48.877
48.8205
48.7636
48.7063
48.6485
48.5903
48.5318
48.4729
48.4136
48.3541
48.2942
48.2341
48.1737
48.113
48.0522
47.9911
47.9299
47.8685
47.8069
47.7453
47.6835
47.6217
47.5597
47.4978
47.4358
47.3738
47.3119
47.25
47.1881
47.1263
47.0646
47.0029
46.9415
46.8801
46.8189
46.7579
46.6971
46.6366
46.5762
46.5161
46.4562
46.3967
46.3374
46.2785
46.2198
46.1615
46.1036
46.0461
45.9889
45.9321
45.8758
45.8199
45.7644
45.7094
45.6548
45.6008
45.5472
45.4941
45.4416
45.3895
45.338
45.2871
45.2367
45.1869
45.1377
45.0891
45.041
44.9936
44.9468
44.9006
44.855
44.8101
44.7658
44.7222
44.6792
44.6369
44.5953
44.5543
44.5141
44.4745
44.4356
44.3974
44.3598
44.323
44.2869
44.2515
44.2168
44.1829
44.1496
44.117
44.0852
44.0541
44.0237
43.994
43.9651
43.9368
43.9093
43.8825
43.8564
43.831
43.8063
43.7824
43.7591
43.7366
43.7147
43.6936
43.6732
43.6534
43.6343
43.616
43.5983
43.5813
43.5649
43.5493
43.5343
43.5199
43.5062
43.4932
43.4808
43.469
43.4578
43.4473
43.4374
43.4281
43.4195
43.4114
43.4039
43.3969
43.3906
43.3848
43.3796
43.3749
43.3708
43.3672
43.3642
43.3616
43.3596
43.3581
43.357
43.3565
43.3564
43.3568
43.3577
43.359
43.3607
43.3629
43.3655
43.3685
43.372
43.3758
43.38
43.3846
43.3895
43.3949
43.4005
43.4065
43.4129
43.4195
43.4265
43.4338
43.4413
43.4492
43.4573
43.4657
43.4743
43.4832
43.4923
43.5017
43.5113
43.521
43.531
43.5412
43.5516
43.5621
43.5728
43.5836
43.5946
43.6058
43.617
43.6284
43.6399
43.6515
43.6632
43.675
43.6868
43.6987
43.7107
43.7227
43.7348
43.7469
43.7591
43.7712
43.7834
43.7956
43.8077
43.8199
43.832
43.8442
43.8562
43.8683
43.8803
43.8922
43.9041
43.9159
43.9277
43.9393
43.9509
43.9624
43.9738
43.985
43.9962
44.0072
44.0181
44.0289
44.0396
44.0501
44.0604
44.0707
44.0807
44.0906
44.1003
44.1099
44.1192
44.1284
44.1374
44.1463
44.1549
44.1633
44.1715
44.1795
44.1873
44.1949
44.2023
44.2094
44.2163
44.223
44.2295
44.2357
44.2417
44.2475
44.253
44.2582
44.2632
44.268
44.2725
44.2768
44.2808
44.2845
44.288
44.2912
44.2942
44.2969
44.2993
44.3014
44.3033
44.305
44.3063
44.3074
44.3082
44.3087
44.309
50.7682
50.7664
50.7629
50.7577
50.751
50.743
50.7337
50.7233
50.7117
50.699
50.6852
50.6704
50.6545
50.6376
50.6195
50.6005
50.5803
50.5591
50.5368
50.5135
50.4891
50.4637
50.4372
50.4097
50.3812
50.3517
50.3211
50.2896
50.257
50.2235
50.189
50.1536
50.1172
50.0799
50.0416
50.0025
49.9624
49.9215
49.8798
49.8372
49.7937
49.7495
49.7044
49.6586
49.612
49.5646
49.5165
49.4677
49.4182
49.368
49.3171
49.2656
49.2135
49.1608
49.1075
49.0536
48.9991
48.9441
48.8886
48.8326
48.7761
48.7192
48.6618
48.6041
48.5459
48.4873
48.4284
48.3691
48.3095
48.2497
48.1895
48.1291
48.0684
48.0075
47.9465
47.8852
47.8238
47.7622
47.7005
47.6388
47.5769
47.515
47.453
47.391
47.329
47.2671
47.2051
47.1432
47.0814
47.0197
46.958
46.8966
46.8352
46.774
46.713
46.6522
46.5916
46.5312
46.4711
46.4113
46.3517
46.2924
46.2334
46.1748
46.1165
46.0586
46.001
45.9438
45.8871
45.8307
45.7748
45.7193
45.6643
45.6097
45.5557
45.5021
45.449
45.3965
45.3444
45.293
45.242
45.1917
45.1418
45.0926
45.044
44.996
44.9485
44.9017
44.8555
44.81
44.765
44.7208
44.6772
44.6342
44.5919
44.5503
44.5093
44.4691
44.4295
44.3906
44.3524
44.3149
44.2781
44.242
44.2066
44.1719
44.138
44.1047
44.0722
44.0403
44.0092
43.9789
43.9492
43.9202
43.892
43.8645
43.8377
43.8116
43.7863
43.7616
43.7377
43.7144
43.6919
43.6701
43.649
43.6286
43.6088
43.5898
43.5714
43.5538
43.5368
43.5205
43.5048
43.4898
43.4755
43.4618
43.4488
43.4364
43.4247
43.4135
43.403
43.3932
43.3839
43.3752
43.3672
43.3597
43.3528
43.3465
43.3407
43.3355
43.3309
43.3268
43.3232
43.3201
43.3176
43.3156
43.3141
43.3131
43.3126
43.3125
43.313
43.3138
43.3152
43.3169
43.3191
43.3218
43.3248
43.3283
43.3321
43.3363
43.3409
43.3459
43.3512
43.3569
43.363
43.3693
43.376
43.383
43.3903
43.3978
43.4057
43.4139
43.4223
43.4309
43.4398
43.449
43.4583
43.4679
43.4777
43.4877
43.4979
43.5083
43.5189
43.5296
43.5404
43.5514
43.5626
43.5739
43.5853
43.5968
43.6084
43.6201
43.6319
43.6437
43.6557
43.6677
43.6797
43.6918
43.7039
43.7161
43.7282
43.7404
43.7526
43.7648
43.777
43.7891
43.8013
43.8134
43.8254
43.8374
43.8494
43.8613
43.8731
43.8848
43.8965
43.9081
43.9196
43.931
43.9422
43.9534
43.9645
43.9754
43.9862
43.9968
44.0073
44.0177
44.0279
44.038
44.0479
44.0576
44.0672
44.0766
44.0858
44.0948
44.1036
44.1122
44.1206
44.1289
44.1369
44.1447
44.1523
44.1596
44.1668
44.1737
44.1804
44.1869
44.1931
44.1991
44.2049
44.2104
44.2156
44.2206
44.2254
44.2299
44.2342
44.2382
44.2419
44.2454
44.2486
44.2516
44.2543
44.2567
44.2589
44.2608
44.2624
44.2637
44.2648
44.2656
44.2662
44.2664
50.706
50.7043
50.7007
50.6956
50.6889
50.6808
50.6715
50.661
50.6493
50.6365
50.6227
50.6077
50.5917
50.5747
50.5566
50.5374
50.5172
50.4959
50.4736
50.4502
50.4257
50.4003
50.3738
50.3462
50.3176
50.2881
50.2575
50.2259
50.1933
50.1598
50.1252
50.0898
50.0534
50.016
49.9778
49.9386
49.8986
49.8576
49.8159
49.7732
49.7298
49.6855
49.6404
49.5946
49.548
49.5006
49.4525
49.4037
49.3542
49.304
49.2531
49.2016
49.1495
49.0967
49.0434
48.9895
48.935
48.88
48.8245
48.7685
48.7121
48.6551
48.5977
48.54
48.4818
48.4232
48.3643
48.305
48.2454
48.1855
48.1254
48.065
48.0043
47.9434
47.8823
47.8211
47.7597
47.6981
47.6364
47.5747
47.5128
47.4509
47.3889
47.3269
47.2649
47.203
47.141
47.0791
47.0173
46.9556
46.894
46.8325
46.7712
46.71
46.649
46.5882
46.5276
46.4672
46.4071
46.3473
46.2877
46.2284
46.1695
46.1109
46.0526
45.9947
45.9371
45.88
45.8232
45.7669
45.711
45.6555
45.6005
45.5459
45.4919
45.4383
45.3853
45.3327
45.2807
45.2293
45.1783
45.128
45.0782
45.029
44.9804
44.9324
44.8849
44.8382
44.792
44.7465
44.7016
44.6573
44.6137
44.5708
44.5285
44.4869
44.446
44.4057
44.3662
44.3273
44.2891
44.2516
44.2149
44.1788
44.1434
44.1088
44.0748
44.0416
44.0091
43.9773
43.9462
43.9159
43.8863
43.8573
43.8291
43.8016
43.7749
43.7488
43.7235
43.6989
43.675
43.6518
43.6293
43.6075
43.5864
43.566
43.5463
43.5273
43.509
43.4913
43.4744
43.4581
43.4424
43.4275
43.4132
43.3995
43.3865
43.3742
43.3625
43.3514
43.3409
43.3311
43.3218
43.3132
43.3051
43.2977
43.2908
43.2845
43.2788
43.2736
43.269
43.2649
43.2614
43.2584
43.2559
43.2539
43.2525
43.2515
43.251
43.251
43.2514
43.2523
43.2537
43.2555
43.2577
43.2603
43.2634
43.2669
43.2707
43.275
43.2796
43.2846
43.29
43.2957
43.3017
43.3081
43.3148
43.3218
43.3291
43.3367
43.3446
43.3528
43.3612
43.3699
43.3788
43.388
43.3974
43.407
43.4168
43.4268
43.437
43.4474
43.458
43.4687
43.4796
43.4906
43.5018
43.5131
43.5245
43.536
43.5477
43.5594
43.5712
43.5831
43.595
43.607
43.6191
43.6312
43.6433
43.6555
43.6677
43.6799
43.6921
43.7042
43.7164
43.7286
43.7407
43.7528
43.7649
43.7769
43.7889
43.8008
43.8126
43.8244
43.8361
43.8477
43.8592
43.8705
43.8818
43.893
43.9041
43.915
43.9258
43.9365
43.947
43.9574
43.9676
43.9776
43.9876
43.9973
44.0068
44.0162
44.0254
44.0345
44.0433
44.0519
44.0603
44.0686
44.0766
44.0844
44.092
44.0994
44.1065
44.1134
44.1201
44.1266
44.1328
44.1388
44.1446
44.1501
44.1554
44.1604
44.1652
44.1697
44.1739
44.1779
44.1817
44.1852
44.1884
44.1913
44.194
44.1965
44.1986
44.2005
44.2021
44.2035
44.2046
44.2054
44.2059
44.2062
50.659
50.6573
50.6538
50.6488
50.6422
50.6342
50.625
50.6145
50.6029
50.5902
50.5763
50.5614
50.5454
50.5283
50.5101
50.4909
50.4707
50.4493
50.4269
50.4035
50.379
50.3535
50.3269
50.2993
50.2707
50.2411
50.2104
50.1788
50.1462
50.1126
50.078
50.0425
50.0061
49.9687
49.9304
49.8912
49.8511
49.8102
49.7684
49.7257
49.6822
49.6379
49.5928
49.5469
49.5003
49.4529
49.4047
49.3559
49.3063
49.2561
49.2052
49.1537
49.1015
49.0487
48.9953
48.9414
48.8869
48.8319
48.7764
48.7203
48.6638
48.6068
48.5494
48.4916
48.4334
48.3748
48.3158
48.2565
48.1969
48.137
48.0768
48.0164
47.9557
47.8948
47.8337
47.7724
47.7109
47.6493
47.5876
47.5258
47.4639
47.402
47.34
47.278
47.216
47.154
47.092
47.0301
46.9683
46.9065
46.8449
46.7834
46.722
46.6608
46.5998
46.5389
46.4783
46.4179
46.3578
46.298
46.2384
46.1791
46.1201
46.0615
46.0032
45.9452
45.8877
45.8305
45.7737
45.7174
45.6615
45.606
45.551
45.4964
45.4423
45.3888
45.3357
45.2832
45.2311
45.1797
45.1288
45.0784
45.0286
44.9794
44.9308
44.8828
44.8353
44.7885
44.7424
44.6968
44.6519
44.6077
44.5641
44.5212
44.4789
44.4373
44.3964
44.3561
44.3166
44.2777
44.2396
44.2021
44.1653
44.1293
44.0939
44.0593
44.0253
43.9921
43.9596
43.9279
43.8968
43.8665
43.8368
43.8079
43.7797
43.7523
43.7255
43.6995
43.6742
43.6496
43.6257
43.6025
43.58
43.5583
43.5372
43.5168
43.4971
43.4781
43.4598
43.4422
43.4253
43.409
43.3934
43.3785
43.3642
43.3506
43.3376
43.3253
43.3136
43.3025
43.2921
43.2823
43.2731
43.2644
43.2564
43.249
43.2422
43.2359
43.2302
43.2251
43.2205
43.2164
43.2129
43.2099
43.2075
43.2055
43.2041
43.2031
43.2026
43.2027
43.2031
43.2041
43.2054
43.2073
43.2095
43.2122
43.2153
43.2188
43.2227
43.227
43.2316
43.2367
43.242
43.2478
43.2538
43.2603
43.267
43.274
43.2813
43.289
43.2969
43.3051
43.3135
43.3222
43.3312
43.3404
43.3498
43.3594
43.3693
43.3793
43.3896
43.4
43.4106
43.4213
43.4322
43.4433
43.4544
43.4658
43.4772
43.4887
43.5004
43.5121
43.5239
43.5358
43.5478
43.5598
43.5719
43.584
43.5962
43.6084
43.6206
43.6328
43.645
43.6572
43.6694
43.6816
43.6938
43.7059
43.718
43.73
43.742
43.7539
43.7657
43.7775
43.7892
43.8008
43.8123
43.8237
43.835
43.8462
43.8573
43.8682
43.879
43.8897
43.9003
43.9106
43.9209
43.931
43.9409
43.9506
43.9602
43.9696
43.9788
43.9878
43.9967
44.0053
44.0137
44.022
44.03
44.0378
44.0454
44.0528
44.06
44.0669
44.0736
44.0801
44.0863
44.0923
44.0981
44.1036
44.1088
44.1139
44.1186
44.1232
44.1274
44.1314
44.1352
44.1387
44.1419
44.1449
44.1476
44.15
44.1521
44.154
44.1557
44.157
44.1581
44.1589
44.1595
44.1597
50.5994
50.5978
50.5943
50.5893
50.5828
50.5748
50.5656
50.5551
50.5435
50.5307
50.5168
50.5018
50.4858
50.4686
50.4504
50.4311
50.4108
50.3894
50.3669
50.3434
50.3189
50.2933
50.2667
50.239
50.2104
50.1807
50.15
50.1183
50.0857
50.052
50.0174
49.9819
49.9454
49.908
49.8696
49.8304
49.7903
49.7493
49.7075
49.6648
49.6213
49.5769
49.5318
49.4859
49.4392
49.3918
49.3436
49.2947
49.2451
49.1949
49.144
49.0924
49.0402
48.9874
48.934
48.88
48.8255
48.7705
48.7149
48.6589
48.6023
48.5453
48.4879
48.4301
48.3718
48.3132
48.2542
48.1949
48.1353
48.0753
48.0151
47.9546
47.8939
47.833
47.7719
47.7106
47.6491
47.5875
47.5258
47.4639
47.402
47.3401
47.2781
47.216
47.154
47.092
47.03
46.9681
46.9062
46.8444
46.7828
46.7213
46.6599
46.5987
46.5376
46.4768
46.4162
46.3558
46.2956
46.2358
46.1762
46.1169
46.0579
45.9993
45.941
45.883
45.8254
45.7683
45.7115
45.6551
45.5992
45.5437
45.4887
45.4342
45.3801
45.3265
45.2735
45.2209
45.1689
45.1174
45.0665
45.0162
44.9664
44.9172
44.8686
44.8205
44.7731
44.7264
44.6802
44.6347
44.5898
44.5456
44.502
44.459
44.4168
44.3752
44.3343
44.2941
44.2545
44.2157
44.1775
44.1401
44.1033
44.0673
44.032
43.9974
43.9634
43.9303
43.8978
43.866
43.835
43.8047
43.7751
43.7462
43.718
43.6906
43.6639
43.6378
43.6126
43.588
43.5641
43.541
43.5185
43.4968
43.4757
43.4554
43.4357
43.4168
43.3985