/*--------------------------------*- C++ -*----------------------------------*\
| =========                 |                                                 |
| \\      /  F ield         | OpenFOAM: The Open Source CFD Toolbox           |
|  \\    /   O peration     | Version:  2212                                  |
|   \\  /    A nd           | Website:  www.openfoam.com                      |
|    \\/     M anipulation  |                                                 |
\*---------------------------------------------------------------------------*/
FoamFile
{
    version     2.0;
    format      ascii;
    arch        "LSB;label=32;scalar=64";
    class       volScalarField;
    location    "370";
    object      p_rgh_0;
}
// * * * * * * * * * * * * * * * * * * * * * * * * * * * * * * * * * * * * * //

dimensions      [1 -1 -2 0 0 0 0];

internalField   nonuniform List<scalar> 
204800
(
23.7544
23.7423
23.7189
23.6838
23.6377
23.5806
23.5133
23.436
23.3495
23.2541
23.1505
23.0394
22.9212
22.7966
22.6661
22.5303
22.3898
22.2449
22.0962
21.9442
21.7891
21.6315
21.4717
21.31
21.1468
20.9823
20.8169
20.6508
20.4843
20.3177
20.1512
19.985
19.8193
19.6544
19.4905
19.3277
19.1663
19.0065
18.8484
18.6921
18.5379
18.3859
18.2362
18.089
17.9445
17.8027
17.6637
17.5278
17.3949
17.2652
17.1388
17.0158
16.8963
16.7803
16.668
16.5593
16.4544
16.3533
16.256
16.1627
16.0734
15.988
15.9066
15.8294
15.7562
15.6871
15.6221
15.5612
15.5045
15.4519
15.4035
15.3591
15.3189
15.2828
15.2508
15.2229
15.199
15.1792
15.1633
15.1514
15.1434
15.1394
15.1391
15.1427
15.1501
15.1612
15.176
15.1944
15.2163
15.2418
15.2708
15.3031
15.3388
15.3778
15.4201
15.4655
15.514
15.5655
15.6201
15.6775
15.7378
15.8009
15.8667
15.9352
16.0062
16.0797
16.1558
16.2341
16.3149
16.3978
16.483
16.5702
16.6595
16.7508
16.8441
16.9391
17.036
17.1346
17.2348
17.3367
17.4401
17.545
17.6513
17.7589
17.8678
17.978
18.0894
18.2019
18.3154
18.43
18.5455
18.6619
18.7792
18.8973
19.0161
19.1356
19.2558
19.3766
19.4979
19.6198
19.7421
19.8648
19.988
20.1114
20.2352
20.3592
20.4834
20.6078
20.7324
20.857
20.9817
21.1065
21.2312
21.356
21.4806
21.6052
21.7296
21.8539
21.978
22.1019
22.2255
22.3489
22.472
22.5948
22.7172
22.8393
22.961
23.0823
23.2031
23.3236
23.4435
23.563
23.6819
23.8004
23.9182
24.0356
24.1524
24.2685
24.3841
24.4991
24.6134
24.7271
24.8401
24.9525
25.0642
25.1751
25.2854
25.395
25.5039
25.612
25.7194
25.826
25.9319
26.037
26.1414
26.2449
26.3477
26.4497
26.5509
26.6512
26.7508
26.8496
26.9475
27.0446
27.1409
27.2363
27.3309
27.4247
27.5176
27.6097
27.7009
27.7913
27.8808
27.9695
28.0573
28.1442
28.2303
28.3155
28.3998
28.4833
28.5659
28.6477
28.7285
28.8085
28.8877
28.9659
29.0433
29.1198
29.1955
29.2702
29.3441
29.4172
29.4893
29.5606
29.631
29.7006
29.7692
29.837
29.904
29.9701
30.0353
30.0996
30.1631
30.2257
30.2874
30.3483
30.4084
30.4675
30.5259
30.5833
30.6399
30.6957
30.7506
30.8047
30.8579
30.9102
30.9617
31.0124
31.0622
31.1112
31.1594
31.2067
31.2531
31.2988
31.3436
31.3876
31.4307
31.473
31.5145
31.5552
31.595
31.634
31.6722
31.7096
31.7461
31.7819
31.8168
31.8509
31.8842
31.9166
31.9483
31.9792
32.0092
32.0385
32.0669
32.0945
32.1214
32.1474
32.1726
32.197
32.2207
32.2435
32.2655
32.2868
32.3072
32.3269
32.3457
32.3638
32.3811
32.3975
32.4132
32.4281
32.4422
32.4556
32.4681
32.4799
32.4908
32.501
32.5104
32.519
32.5269
32.5339
32.5402
32.5456
32.5503
32.5543
32.5574
32.5597
32.5613
32.5621
23.7463
23.7334
23.7081
23.6706
23.6213
23.5607
23.4897
23.4087
23.3186
23.22
23.1135
22.9998
22.8794
22.7531
22.6212
22.4844
22.3431
22.1977
22.0487
21.8964
21.7413
21.5838
21.4241
21.2625
21.0995
20.9353
20.7702
20.6044
20.4383
20.272
20.1058
19.9399
19.7746
19.61
19.4465
19.2841
19.123
18.9635
18.8057
18.6498
18.4959
18.3442
18.1949
18.048
17.9038
17.7623
17.6236
17.488
17.3554
17.226
17.0999
16.9772
16.8579
16.7422
16.6301
16.5216
16.417
16.3161
16.2191
16.126
16.0368
15.9517
15.8705
15.7934
15.7204
15.6515
15.5867
15.526
15.4694
15.4169
15.3686
15.3244
15.2843
15.2484
15.2165
15.1886
15.1648
15.1451
15.1293
15.1174
15.1095
15.1055
15.1054
15.109
15.1164
15.1275
15.1423
15.1607
15.1827
15.2082
15.2371
15.2694
15.3051
15.3441
15.3863
15.4317
15.4801
15.5316
15.5861
15.6435
15.7037
15.7667
15.8325
15.9008
15.9718
16.0452
16.1211
16.1994
16.28
16.3629
16.4479
16.535
16.6242
16.7154
16.8085
16.9034
17.0001
17.0986
17.1987
17.3004
17.4036
17.5083
17.6144
17.7219
17.8307
17.9407
18.0519
18.1642
18.2775
18.3919
18.5072
18.6235
18.7406
18.8584
18.9771
19.0964
19.2164
19.337
19.4581
19.5797
19.7019
19.8244
19.9473
20.0706
20.1941
20.3179
20.4419
20.5661
20.6904
20.8149
20.9394
21.0639
21.1884
21.313
21.4374
21.5617
21.686
21.81
21.9339
22.0576
22.181
22.3042
22.427
22.5496
22.6718
22.7937
22.9152
23.0362
23.1569
23.2771
23.3968
23.516
23.6348
23.753
23.8707
23.9878
24.1044
24.2203
24.3357
24.4504
24.5646
24.678
24.7909
24.903
25.0145
25.1253
25.2354
25.3448
25.4534
25.5613
25.6685
25.775
25.8806
25.9856
26.0897
26.1931
26.2957
26.3975
26.4984
26.5986
26.698
26.7966
26.8943
26.9913
27.0874
27.1826
27.2771
27.3707
27.4634
27.5553
27.6464
27.7366
27.8259
27.9144
28.002
28.0888
28.1747
28.2598
28.344
28.4273
28.5097
28.5913
28.672
28.7519
28.8309
28.909
28.9862
29.0626
29.1381
29.2127
29.2865
29.3594
29.4314
29.5025
29.5728
29.6422
29.7108
29.7784
29.8452
29.9112
29.9763
30.0405
30.1038
30.1663
30.228
30.2887
30.3487
30.4077
30.4659
30.5233
30.5798
30.6354
30.6902
30.7442
30.7973
30.8495
30.901
30.9515
31.0013
31.0502
31.0982
31.1454
31.1918
31.2374
31.2821
31.326
31.369
31.4113
31.4527
31.4932
31.533
31.5719
31.6101
31.6474
31.6838
31.7195
31.7543
31.7884
31.8216
31.854
31.8856
31.9164
31.9464
31.9756
32.004
32.0316
32.0583
32.0843
32.1095
32.1339
32.1575
32.1802
32.2022
32.2234
32.2438
32.2634
32.2823
32.3003
32.3175
32.334
32.3496
32.3645
32.3786
32.3919
32.4044
32.4162
32.4271
32.4373
32.4466
32.4552
32.4631
32.4701
32.4763
32.4818
32.4865
32.4904
32.4935
32.4959
32.4974
32.4982
23.7213
23.7086
23.6836
23.6463
23.5974
23.5372
23.4666
23.3861
23.2963
23.1981
23.0919
22.9785
22.8585
22.7324
22.6007
22.4641
22.3229
22.1776
22.0287
21.8766
21.7216
21.5641
21.4045
21.2431
21.0802
20.916
20.751
20.5853
20.4193
20.2531
20.087
19.9212
19.756
19.5916
19.4281
19.2658
19.1049
18.9455
18.7878
18.632
18.4782
18.3266
18.1774
18.0306
17.8865
17.7451
17.6066
17.471
17.3386
17.2093
17.0833
16.9607
16.8415
16.7259
16.6139
16.5056
16.401
16.3002
16.2033
16.1103
16.0213
15.9362
15.8552
15.7782
15.7053
15.6365
15.5718
15.5112
15.4547
15.4024
15.3541
15.31
15.2701
15.2342
15.2024
15.1746
15.151
15.1313
15.1156
15.1039
15.096
15.0921
15.0921
15.0958
15.1033
15.1145
15.1294
15.1479
15.1699
15.1955
15.2245
15.2569
15.2927
15.3318
15.3741
15.4195
15.4681
15.5196
15.5742
15.6317
15.692
15.755
15.8208
15.8893
15.9603
16.0338
16.1098
16.1882
16.2688
16.3517
16.4368
16.524
16.6133
16.7045
16.7976
16.8926
16.9894
17.0879
17.188
17.2898
17.3931
17.4978
17.604
17.7115
17.8203
17.9304
18.0416
18.154
18.2674
18.3818
18.4971
18.6134
18.7305
18.8485
18.9671
19.0865
19.2065
19.3271
19.4483
19.5699
19.6921
19.8146
19.9376
20.0608
20.1844
20.3082
20.4322
20.5564
20.6808
20.8052
20.9297
21.0543
21.1788
21.3034
21.4278
21.5522
21.6764
21.8004
21.9243
22.048
22.1714
22.2946
22.4175
22.54
22.6623
22.7841
22.9056
23.0267
23.1473
23.2675
23.3872
23.5065
23.6252
23.7434
23.8611
23.9782
24.0947
24.2107
24.326
24.4408
24.5549
24.6684
24.7812
24.8933
25.0048
25.1156
25.2256
25.335
25.4436
25.5516
25.6587
25.7651
25.8708
25.9757
26.0798
26.1832
26.2858
26.3875
26.4885
26.5887
26.6881
26.7866
26.8843
26.9813
27.0773
27.1726
27.267
27.3606
27.4533
27.5452
27.6362
27.7264
27.8157
27.9042
27.9918
28.0786
28.1645
28.2495
28.3337
28.417
28.4994
28.581
28.6617
28.7415
28.8205
28.8986
28.9758
29.0521
29.1276
29.2022
29.2759
29.3488
29.4208
29.4919
29.5622
29.6316
29.7001
29.7678
29.8346
29.9005
29.9656
30.0298
30.0931
30.1556
30.2172
30.2779
30.3378
30.3969
30.4551
30.5124
30.5689
30.6245
30.6793
30.7333
30.7863
30.8386
30.89
30.9405
30.9903
31.0391
31.0872
31.1344
31.1808
31.2263
31.271
31.3149
31.3579
31.4001
31.4415
31.4821
31.5218
31.5608
31.5989
31.6361
31.6726
31.7083
31.7431
31.7771
31.8103
31.8427
31.8743
31.9051
31.9351
31.9643
31.9927
32.0202
32.047
32.073
32.0981
32.1225
32.1461
32.1689
32.1909
32.212
32.2324
32.252
32.2709
32.2889
32.3061
32.3226
32.3382
32.3531
32.3672
32.3805
32.393
32.4047
32.4156
32.4258
32.4352
32.4438
32.4516
32.4586
32.4649
32.4703
32.475
32.4789
32.482
32.4844
32.4859
32.4867
23.6853
23.6723
23.6466
23.6084
23.5582
23.4967
23.4246
23.3425
23.2513
23.1516
23.0441
22.9295
22.8085
22.6815
22.5491
22.4119
22.2703
22.1247
21.9757
21.8234
21.6685
21.5111
21.3516
21.1903
21.0276
20.8638
20.699
20.5336
20.3678
20.202
20.0362
19.8708
19.7059
19.5418
19.3787
19.2167
19.0561
18.897
18.7397
18.5842
18.4308
18.2796
18.1307
17.9843
17.8405
17.6994
17.5612
17.4259
17.2938
17.1648
17.0391
16.9168
16.798
16.6826
16.5709
16.4629
16.3586
16.2581
16.1615
16.0687
15.9799
15.8951
15.8143
15.7376
15.6649
15.5963
15.5319
15.4715
15.4152
15.3631
15.3151
15.2712
15.2314
15.1957
15.1641
15.1365
15.113
15.0935
15.078
15.0664
15.0588
15.055
15.055
15.0589
15.0665
15.0779
15.0929
15.1115
15.1336
15.1593
15.1884
15.221
15.2568
15.296
15.3383
15.3839
15.4325
15.4841
15.5387
15.5962
15.6566
15.7197
15.7855
15.854
15.9251
15.9986
16.0746
16.153
16.2337
16.3166
16.4017
16.4889
16.5781
16.6693
16.7624
16.8574
16.9542
17.0526
17.1528
17.2545
17.3577
17.4624
17.5686
17.676
17.7848
17.8948
18.0059
18.1182
18.2316
18.3459
18.4612
18.5774
18.6944
18.8123
18.9309
19.0501
19.1701
19.2906
19.4116
19.5332
19.6553
19.7777
19.9005
20.0237
20.1471
20.2709
20.3948
20.5189
20.6431
20.7674
20.8918
21.0163
21.1407
21.2651
21.3894
21.5136
21.6377
21.7617
21.8854
22.009
22.1323
22.2553
22.378
22.5005
22.6225
22.7443
22.8656
22.9865
23.107
23.2271
23.3467
23.4658
23.5844
23.7024
23.82
23.9369
24.0533
24.1692
24.2844
24.399
24.5129
24.6263
24.7389
24.8509
24.9623
25.0729
25.1828
25.2921
25.4006
25.5083
25.6154
25.7216
25.8272
25.9319
26.0359
26.1391
26.2416
26.3432
26.4441
26.5441
26.6433
26.7417
26.8393
26.9361
27.0321
27.1272
27.2215
27.3149
27.4075
27.4993
27.5902
27.6802
27.7694
27.8578
27.9453
28.0319
28.1177
28.2026
28.2866
28.3698
28.4521
28.5336
28.6142
28.6939
28.7727
28.8507
28.9278
29.004
29.0794
29.1539
29.2275
29.3003
29.3722
29.4432
29.5133
29.5826
29.6511
29.7186
29.7853
29.8511
29.9161
29.9802
30.0434
30.1058
30.1673
30.228
30.2878
30.3468
30.4049
30.4621
30.5185
30.5741
30.6288
30.6826
30.7356
30.7878
30.8391
30.8896
30.9392
30.988
31.036
31.0831
31.1294
31.1749
31.2195
31.2633
31.3063
31.3485
31.3898
31.4303
31.47
31.5088
31.5469
31.5841
31.6205
31.6561
31.6909
31.7249
31.758
31.7904
31.8219
31.8527
31.8826
31.9117
31.9401
31.9676
31.9943
32.0202
32.0454
32.0697
32.0932
32.116
32.1379
32.1591
32.1794
32.199
32.2178
32.2358
32.253
32.2694
32.2851
32.2999
32.314
32.3272
32.3397
32.3514
32.3624
32.3725
32.3819
32.3904
32.3982
32.4053
32.4115
32.417
32.4216
32.4255
32.4287
32.431
32.4325
32.4333
23.6374
23.6247
23.5994
23.5618
23.5124
23.4517
23.3805
23.2994
23.209
23.1101
23.0034
22.8896
22.7691
22.6426
22.5107
22.3739
22.2326
22.0874
21.9385
21.7866
21.6318
21.4746
21.3153
21.1542
20.9917
20.828
20.6634
20.4982
20.3326
20.1669
20.0013
19.8361
19.6714
19.5075
19.3446
19.1828
19.0224
18.8636
18.7064
18.5512
18.3979
18.2469
18.0982
17.952
17.8084
17.6675
17.5295
17.3945
17.2626
17.1338
17.0083
16.8862
16.7675
16.6524
16.5409
16.4331
16.329
16.2287
16.1322
16.0397
15.9511
15.8665
15.7859
15.7094
15.6369
15.5685
15.5042
15.4441
15.388
15.3361
15.2883
15.2446
15.205
15.1695
15.138
15.1107
15.0874
15.068
15.0527
15.0413
15.0339
15.0303
15.0305
15.0346
15.0424
15.0539
15.0691
15.0879
15.1102
15.1361
15.1654
15.1981
15.2341
15.2735
15.316
15.3617
15.4105
15.4623
15.5171
15.5747
15.6353
15.6985
15.7645
15.8332
15.9044
15.9781
16.0542
16.1327
16.2135
16.2966
16.3818
16.4692
16.5585
16.6499
16.7431
16.8382
16.9351
17.0337
17.134
17.2358
17.3392
17.444
17.5502
17.6578
17.7667
17.8768
17.988
18.1004
18.2138
18.3283
18.4436
18.5599
18.6771
18.795
18.9136
19.033
19.153
19.2736
19.3947
19.5163
19.6384
19.761
19.8838
20.0071
20.1306
20.2543
20.3783
20.5024
20.6267
20.7511
20.8755
21
21.1245
21.2489
21.3733
21.4975
21.6216
21.7456
21.8694
21.993
22.1163
22.2393
22.3621
22.4845
22.6066
22.7284
22.8497
22.9707
23.0912
23.2112
23.3308
23.4499
23.5685
23.6866
23.8042
23.9211
24.0375
24.1533
24.2686
24.3832
24.4971
24.6104
24.7231
24.8351
24.9464
25.057
25.167
25.2762
25.3847
25.4924
25.5994
25.7057
25.8112
25.916
26.0199
26.1231
26.2255
26.3272
26.428
26.528
26.6272
26.7256
26.8232
26.9199
27.0159
27.111
27.2052
27.2986
27.3912
27.4829
27.5738
27.6639
27.753
27.8414
27.9288
28.0154
28.1012
28.1861
28.2701
28.3532
28.4355
28.517
28.5975
28.6772
28.756
28.834
28.911
28.9872
29.0626
29.1371
29.2107
29.2834
29.3553
29.4263
29.4964
29.5656
29.634
29.7016
29.7682
29.834
29.899
29.963
30.0263
30.0886
30.1501
30.2108
30.2705
30.3295
30.3875
30.4448
30.5011
30.5567
30.6113
30.6652
30.7182
30.7703
30.8216
30.872
30.9217
30.9704
31.0184
31.0655
31.1118
31.1572
31.2018
31.2456
31.2886
31.3307
31.372
31.4125
31.4522
31.491
31.529
31.5662
31.6026
31.6382
31.673
31.7069
31.7401
31.7724
31.8039
31.8347
31.8646
31.8937
31.922
31.9495
31.9762
32.0022
32.0273
32.0516
32.0751
32.0978
32.1198
32.1409
32.1613
32.1808
32.1996
32.2176
32.2348
32.2512
32.2668
32.2817
32.2957
32.309
32.3215
32.3332
32.3441
32.3542
32.3636
32.3722
32.38
32.387
32.3932
32.3987
32.4033
32.4072
32.4104
32.4127
32.4142
32.415
23.5782
23.5655
23.5401
23.5025
23.453
23.3922
23.3209
23.2395
23.149
23.0499
22.943
22.8289
22.7083
22.5817
22.4497
22.3128
22.1715
22.0263
21.8775
21.7256
21.571
21.4139
21.2548
21.094
20.9317
20.7683
20.604
20.4391
20.2738
20.1084
19.9432
19.7783
19.614
19.4504
19.2879
19.1265
18.9664
18.8079
18.6512
18.4963
18.3434
18.1927
18.0444
17.8986
17.7553
17.6148
17.4772
17.3425
17.2109
17.0825
16.9573
16.8356
16.7172
16.6024
16.4913
16.3838
16.28
16.18
16.0839
15.9917
15.9034
15.8191
15.7389
15.6626
15.5904
15.5223
15.4583
15.3985
15.3427
15.291
15.2435
15.2001
15.1608
15.1255
15.0944
15.0673
15.0442
15.0252
15.0101
14.9989
14.9917
14.9884
14.9889
14.9932
15.0012
15.0129
15.0283
15.0473
15.0699
15.096
15.1255
15.1584
15.1946
15.2341
15.2768
15.3227
15.3717
15.4237
15.4786
15.5365
15.5971
15.6606
15.7267
15.7955
15.8668
15.9407
16.0169
16.0956
16.1765
16.2597
16.3451
16.4325
16.522
16.6134
16.7068
16.802
16.8989
16.9976
17.0979
17.1999
17.3033
17.4082
17.5145
17.6221
17.731
17.8412
17.9525
18.0649
18.1784
18.2928
18.4083
18.5246
18.6417
18.7596
18.8783
18.9977
19.1177
19.2383
19.3594
19.4811
19.6032
19.7257
19.8485
19.9717
20.0952
20.219
20.3429
20.467
20.5913
20.7156
20.84
20.9645
21.0889
21.2133
21.3376
21.4618
21.5859
21.7098
21.8335
21.957
22.0803
22.2033
22.326
22.4484
22.5704
22.6921
22.8134
22.9342
23.0547
23.1747
23.2942
23.4132
23.5317
23.6497
23.7672
23.8841
24.0004
24.1161
24.2313
24.3458
24.4596
24.5729
24.6855
24.7974
24.9086
25.0191
25.129
25.2381
25.3465
25.4541
25.5611
25.6672
25.7727
25.8773
25.9812
26.0843
26.1866
26.2881
26.3889
26.4888
26.5879
26.6862
26.7837
26.8803
26.9762
27.0712
27.1653
27.2587
27.3511
27.4428
27.5336
27.6235
27.7126
27.8008
27.8882
27.9747
28.0604
28.1452
28.2291
28.3121
28.3943
28.4757
28.5561
28.6357
28.7145
28.7923
28.8693
28.9454
29.0207
29.0951
29.1686
29.2412
29.313
29.3839
29.454
29.5232
29.5915
29.6589
29.7255
29.7912
29.8561
29.9201
29.9832
30.0455
30.1069
30.1675
30.2272
30.2861
30.3441
30.4012
30.4575
30.513
30.5676
30.6213
30.6743
30.7263
30.7776
30.828
30.8775
30.9262
30.9741
31.0212
31.0674
31.1128
31.1573
31.201
31.2439
31.286
31.3273
31.3677
31.4073
31.4461
31.4841
31.5212
31.5576
31.5931
31.6278
31.6618
31.6949
31.7271
31.7586
31.7893
31.8192
31.8483
31.8766
31.904
31.9307
31.9566
31.9817
32.006
32.0294
32.0521
32.0741
32.0952
32.1155
32.135
32.1538
32.1717
32.1889
32.2053
32.2209
32.2357
32.2498
32.263
32.2755
32.2872
32.2981
32.3082
32.3175
32.3261
32.3339
32.3409
32.3471
32.3526
32.3572
32.3611
32.3642
32.3666
32.3681
32.3689
23.5097
23.4973
23.4725
23.4356
23.3871
23.3275
23.2574
23.1773
23.088
22.9902
22.8844
22.7713
22.6517
22.5259
22.3946
22.2584
22.1177
21.9729
21.8246
21.6731
21.5188
21.362
21.2032
21.0427
20.8807
20.7175
20.5535
20.3888
20.2238
20.0587
19.8938
19.7291
19.5651
19.4018
19.2395
19.0784
18.9187
18.7605
18.604
18.4494
18.2968
18.1464
17.9984
17.8528
17.7098
17.5696
17.4323
17.2979
17.1666
17.0384
16.9136
16.7921
16.674
16.5595
16.4487
16.3414
16.238
16.1383
16.0425
15.9505
15.8625
15.7785
15.6985
15.6226
15.5507
15.4829
15.4192
15.3596
15.3041
15.2528
15.2055
15.1624
15.1234
15.0884
15.0576
15.0307
15.008
14.9892
14.9744
14.9636
14.9566
14.9536
14.9543
14.9589
14.9672
14.9792
14.9949
15.0142
15.0371
15.0634
15.0932
15.1264
15.1629
15.2026
15.2456
15.2918
15.341
15.3932
15.4484
15.5065
15.5675
15.6311
15.6975
15.7666
15.8381
15.9122
15.9887
16.0676
16.1488
16.2322
16.3178
16.4054
16.4951
16.5868
16.6803
16.7757
16.8729
16.9718
17.0723
17.1744
17.278
17.3831
17.4896
17.5974
17.7065
17.8168
17.9283
18.0409
18.1545
18.2691
18.3847
18.5011
18.6184
18.7365
18.8553
18.9748
19.0949
19.2157
19.3369
19.4587
19.5809
19.7035
19.8265
19.9498
20.0734
20.1972
20.3213
20.4455
20.5698
20.6943
20.8187
20.9432
21.0678
21.1922
21.3166
21.4409
21.565
21.689
21.8128
21.9363
22.0597
22.1827
22.3055
22.4279
22.55
22.6717
22.793
22.9139
23.0344
23.1544
23.274
23.393
23.5116
23.6296
23.747
23.864
23.9803
24.096
24.2112
24.3257
24.4396
24.5528
24.6654
24.7773
24.8886
24.9991
25.1089
25.2181
25.3265
25.4341
25.541
25.6472
25.7526
25.8573
25.9611
26.0642
26.1665
26.2681
26.3688
26.4687
26.5678
26.6661
26.7635
26.8602
26.956
27.051
27.1451
27.2384
27.3309
27.4225
27.5132
27.6032
27.6922
27.7804
27.8678
27.9543
28.0399
28.1247
28.2086
28.2916
28.3738
28.4551
28.5355
28.6151
28.6938
28.7716
28.8486
28.9247
28.9999
29.0742
29.1477
29.2203
29.2921
29.363
29.433
29.5021
29.5704
29.6379
29.7044
29.7701
29.8349
29.8989
29.962
30.0243
30.0857
30.1462
30.2059
30.2647
30.3227
30.3798
30.4361
30.4915
30.5461
30.5998
30.6527
30.7048
30.756
30.8063
30.8559
30.9045
30.9524
30.9994
31.0456
31.091
31.1355
31.1792
31.2221
31.2641
31.3054
31.3458
31.3854
31.4241
31.4621
31.4992
31.5356
31.5711
31.6058
31.6397
31.6727
31.705
31.7365
31.7671
31.797
31.8261
31.8543
31.8818
31.9084
31.9343
31.9594
31.9836
32.0071
32.0298
32.0517
32.0728
32.0931
32.1126
32.1314
32.1493
32.1665
32.1829
32.1985
32.2133
32.2273
32.2405
32.253
32.2647
32.2756
32.2857
32.295
32.3036
32.3114
32.3184
32.3246
32.33
32.3347
32.3386
32.3417
32.344
32.3456
32.3464
23.4305
23.4182
23.3937
23.3573
23.3093
23.2502
23.1807
23.1013
23.0126
22.9154
22.8102
22.6977
22.5785
22.4532
22.3223
22.1865
22.0461
21.9017
21.7537
21.6025
21.4485
21.2921
21.1336
20.9734
20.8117
20.6489
20.4852
20.3209
20.1563
19.9915
19.8269
19.6627
19.499
19.3361
19.1742
19.0135
18.8542
18.6964
18.5403
18.3861
18.2339
18.0839
17.9363
17.7911
17.6486
17.5087
17.3718
17.2378
17.1069
16.9791
16.8547
16.7336
16.6159
16.5018
16.3913
16.2845
16.1814
16.0821
15.9866
15.8951
15.8075
15.7238
15.6442
15.5686
15.4971
15.4297
15.3663
15.3071
15.252
15.201
15.1541
15.1113
15.0727
15.0381
15.0076
14.9811
14.9587
14.9402
14.9258
14.9153
14.9087
14.9059
14.907
14.9119
14.9206
14.9329
14.9489
14.9685
14.9917
15.0183
15.0484
15.0819
15.1187
15.1588
15.2021
15.2485
15.298
15.3505
15.406
15.4644
15.5256
15.5895
15.6562
15.7254
15.7973
15.8716
15.9484
16.0275
16.1089
16.1925
16.2783
16.3662
16.4561
16.548
16.6417
16.7373
16.8347
16.9337
17.0344
17.1367
17.2405
17.3458
17.4524
17.5604
17.6696
17.7801
17.8917
18.0044
18.1182
18.233
18.3486
18.4652
18.5826
18.7008
18.8197
18.9393
19.0596
19.1804
19.3017
19.4236
19.5459
19.6686
19.7916
19.915
20.0387
20.1626
20.2867
20.4109
20.5353
20.6598
20.7843
20.9088
21.0334
21.1579
21.2823
21.4066
21.5307
21.6547
21.7785
21.9021
22.0255
22.1485
22.2713
22.3937
22.5158
22.6375
22.7588
22.8797
23.0001
23.1201
23.2397
23.3587
23.4772
23.5952
23.7127
23.8296
23.9459
24.0616
24.1767
24.2912
24.405
24.5182
24.6308
24.7426
24.8538
24.9643
25.0741
25.1832
25.2915
25.3991
25.506
25.6121
25.7175
25.8221
25.9259
26.0289
26.1312
26.2326
26.3333
26.4331
26.5322
26.6304
26.7278
26.8244
26.9201
27.015
27.1091
27.2023
27.2947
27.3863
27.477
27.5668
27.6558
27.744
27.8312
27.9177
28.0032
28.0879
28.1718
28.2547
28.3368
28.4181
28.4984
28.5779
28.6566
28.7343
28.8112
28.8873
28.9624
29.0367
29.1101
29.1827
29.2544
29.3252
29.3951
29.4642
29.5324
29.5998
29.6663
29.7319
29.7967
29.8606
29.9236
29.9858
30.0472
30.1076
30.1673
30.226
30.2839
30.341
30.3972
30.4526
30.5071
30.5608
30.6136
30.6656
30.7168
30.7671
30.8166
30.8652
30.913
30.96
31.0061
31.0514
31.0959
31.1396
31.1824
31.2244
31.2656
31.3059
31.3455
31.3842
31.4221
31.4592
31.4955
31.531
31.5656
31.5995
31.6325
31.6648
31.6962
31.7268
31.7567
31.7857
31.8139
31.8413
31.868
31.8938
31.9189
31.9431
31.9665
31.9892
32.0111
32.0322
32.0524
32.0719
32.0907
32.1086
32.1257
32.1421
32.1577
32.1725
32.1865
32.1997
32.2121
32.2238
32.2347
32.2448
32.2541
32.2627
32.2704
32.2774
32.2836
32.2891
32.2937
32.2976
32.3007
32.3031
32.3046
32.3054
23.3431
23.3312
23.3072
23.2717
23.2248
23.1671
23.099
23.021
22.9339
22.8381
22.7343
22.6232
22.5052
22.3811
22.2512
22.1163
21.9767
21.833
21.6857
21.5351
21.3816
21.2257
21.0676
20.9078
20.7465
20.584
20.4207
20.2568
20.0925
19.9281
19.7639
19.6
19.4367
19.2742
19.1126
18.9523
18.7933
18.6358
18.4801
18.3262
18.1744
18.0248
17.8775
17.7327
17.5905
17.4511
17.3145
17.1808
17.0503
16.9229
16.7988
16.6781
16.5608
16.4471
16.3369
16.2305
16.1277
16.0288
15.9337
15.8426
15.7553
15.6721
15.5928
15.5176
15.4465
15.3794
15.3164
15.2576
15.2029
15.1522
15.1057
15.0633
15.025
14.9908
14.9607
14.9346
14.9126
14.8945
14.8805
14.8703
14.8641
14.8618
14.8633
14.8685
14.8776
14.8903
14.9067
14.9266
14.9502
14.9772
15.0077
15.0415
15.0787
15.1191
15.1627
15.2095
15.2594
15.3123
15.3681
15.4268
15.4884
15.5527
15.6197
15.6893
15.7614
15.8361
15.9132
15.9926
16.0743
16.1583
16.2444
16.3326
16.4228
16.515
16.609
16.7049
16.8025
16.9019
17.0029
17.1054
17.2095
17.315
17.4219
17.5301
17.6396
17.7503
17.8622
17.9751
18.0891
18.2041
18.32
18.4368
18.5544
18.6728
18.792
18.9118
19.0322
19.1532
19.2747
19.3967
19.5192
19.6421
19.7653
19.8888
20.0126
20.1367
20.2609
20.3853
20.5099
20.6345
20.7591
20.8838
21.0084
21.1331
21.2576
21.382
21.5063
21.6304
21.7543
21.8779
22.0013
22.1245
22.2473
22.3698
22.492
22.6138
22.7351
22.8561
22.9766
23.0967
23.2163
23.3354
23.4539
23.572
23.6895
23.8064
23.9228
24.0385
24.1537
24.2682
24.3821
24.4953
24.6079
24.7198
24.831
24.9415
25.0513
25.1604
25.2687
25.3763
25.4832
25.5894
25.6947
25.7993
25.9031
26.0062
26.1084
26.2099
26.3105
26.4104
26.5094
26.6076
26.705
26.8016
26.8973
26.9922
27.0863
27.1795
27.2719
27.3634
27.4541
27.5439
27.6329
27.721
27.8083
27.8947
27.9802
28.0649
28.1487
28.2317
28.3138
28.395
28.4753
28.5548
28.6334
28.7111
28.788
28.864
28.9391
29.0134
29.0868
29.1593
29.231
29.3018
29.3717
29.4408
29.5089
29.5763
29.6427
29.7083
29.7731
29.837
29.9
29.9621
30.0234
30.0839
30.1435
30.2022
30.2601
30.3171
30.3733
30.4287
30.4832
30.5368
30.5896
30.6416
30.6927
30.743
30.7924
30.8411
30.8888
30.9358
30.9819
31.0272
31.0716
31.1153
31.1581
31.2
31.2412
31.2815
31.3211
31.3598
31.3977
31.4347
31.471
31.5064
31.5411
31.5749
31.6079
31.6402
31.6716
31.7022
31.732
31.761
31.7892
31.8166
31.8432
31.869
31.8941
31.9183
31.9417
31.9644
31.9862
32.0073
32.0276
32.0471
32.0658
32.0837
32.1008
32.1172
32.1327
32.1475
32.1615
32.1747
32.1872
32.1988
32.2097
32.2198
32.2291
32.2377
32.2454
32.2524
32.2586
32.264
32.2687
32.2726
32.2757
32.278
32.2796
32.2803
23.2457
23.2339
23.2105
23.1756
23.1296
23.0728
23.0057
22.929
22.8429
22.7483
22.6456
22.5355
22.4186
22.2953
22.1664
22.0322
21.8934
21.7503
21.6036
21.4535
21.3006
21.1451
20.9876
20.8282
20.6673
20.5053
20.3424
20.1789
20.0151
19.8511
19.6873
19.5239
19.361
19.1989
19.0378
18.8779
18.7194
18.5624
18.4071
18.2537
18.1023
17.9531
17.8063
17.6619
17.5202
17.3812
17.245
17.1119
16.9817
16.8548
16.7312
16.6109
16.494
16.3807
16.271
16.165
16.0628
15.9643
15.8696
15.7789
15.6921
15.6093
15.5305
15.4557
15.385
15.3184
15.2559
15.1975
15.1432
15.093
15.0469
15.005
14.9671
14.9334
14.9037
14.878
14.8564
14.8388
14.8252
14.8155
14.8097
14.8078
14.8097
14.8154
14.8248
14.838
14.8548
14.8752
14.8991
14.9265
14.9574
14.9917
15.0292
15.0701
15.1141
15.1613
15.2115
15.2648
15.321
15.3801
15.442
15.5067
15.5741
15.644
15.7166
15.7916
15.869
15.9488
16.0308
16.1151
16.2015
16.29
16.3806
16.4731
16.5674
16.6636
16.7615
16.8612
16.9624
17.0653
17.1696
17.2754
17.3826
17.491
17.6008
17.7117
17.8238
17.937
18.0512
18.1664
18.2826
18.3996
18.5174
18.636
18.7553
18.8753
18.9959
19.1171
19.2388
19.361
19.4836
19.6066
19.73
19.8537
19.9776
20.1018
20.2262
20.3507
20.4754
20.6001
20.7249
20.8496
20.9744
21.0991
21.2237
21.3482
21.4726
21.5967
21.7207
21.8445
21.968
22.0912
22.2141
22.3366
22.4588
22.5806
22.7021
22.8231
22.9436
23.0638
23.1834
23.3025
23.4211
23.5392
23.6567
23.7736
23.89
24.0058
24.1209
24.2354
24.3493
24.4626
24.5751
24.687
24.7982
24.9087
25.0185
25.1276
25.2359
25.3435
25.4504
25.5565
25.6619
25.7664
25.8702
25.9732
26.0755
26.1769
26.2775
26.3773
26.4763
26.5745
26.6719
26.7684
26.8641
26.959
27.053
27.1462
27.2385
27.33
27.4207
27.5104
27.5994
27.6874
27.7747
27.861
27.9465
28.0311
28.1149
28.1978
28.2798
28.361
28.4413
28.5207
28.5993
28.677
28.7538
28.8297
28.9048
28.979
29.0524
29.1249
29.1965
29.2672
29.3371
29.4061
29.4742
29.5415
29.6079
29.6735
29.7382
29.802
29.8649
29.9271
29.9883
30.0487
30.1083
30.1669
30.2248
30.2818
30.3379
30.3932
30.4477
30.5013
30.554
30.6059
30.657
30.7073
30.7567
30.8052
30.853
30.8999
30.9459
30.9912
31.0356
31.0792
31.1219
31.1639
31.205
31.2453
31.2848
31.3235
31.3613
31.3984
31.4346
31.47
31.5046
31.5384
31.5714
31.6036
31.635
31.6655
31.6953
31.7243
31.7525
31.7799
31.8064
31.8322
31.8572
31.8814
31.9048
31.9275
31.9493
31.9703
31.9906
32.0101
32.0288
32.0467
32.0638
32.0801
32.0956
32.1104
32.1244
32.1376
32.15
32.1617
32.1725
32.1826
32.1919
32.2005
32.2082
32.2152
32.2214
32.2268
32.2315
32.2354
32.2385
32.2408
32.2423
32.2431
23.1406
23.1292
23.1064
23.0724
23.0275
22.9721
22.9066
22.8314
22.7471
22.6541
22.5531
22.4446
22.3291
22.2072
22.0796
21.9466
21.8088
21.6668
21.5209
21.3716
21.2194
21.0646
20.9076
20.7488
20.5885
20.427
20.2646
20.1015
19.9382
19.7746
19.6113
19.4482
19.2858
19.1241
18.9635
18.804
18.6459
18.4893
18.3345
18.1815
18.0306
17.8818
17.7354
17.5915
17.4502
17.3116
17.1759
17.0432
16.9135
16.787
16.6638
16.5439
16.4276
16.3147
16.2054
16.0999
15.998
15.9
15.8058
15.7155
15.6292
15.5469
15.4685
15.3942
15.324
15.2578
15.1958
15.1378
15.084
15.0343
14.9887
14.9472
14.9098
14.8765
14.8473
14.8221
14.801
14.7839
14.7707
14.7615
14.7562
14.7547
14.7571
14.7633
14.7732
14.7869
14.8041
14.825
14.8494
14.8773
14.9087
14.9434
14.9814
15.0227
15.0672
15.1149
15.1656
15.2193
15.276
15.3355
15.3979
15.463
15.5308
15.6012
15.6741
15.7496
15.8274
15.9076
15.9901
16.0748
16.1616
16.2505
16.3414
16.4343
16.529
16.6256
16.7239
16.8239
16.9256
17.0287
17.1334
17.2396
17.3471
17.4559
17.5659
17.6772
17.7896
17.9031
18.0177
18.1332
18.2496
18.3669
18.485
18.6038
18.7234
18.8437
18.9645
19.086
19.2079
19.3304
19.4532
19.5765
19.7001
19.824
19.9481
20.0725
20.1971
20.3218
20.4467
20.5716
20.6965
20.8215
20.9464
21.0713
21.1961
21.3207
21.4452
21.5695
21.6937
21.8175
21.9412
22.0645
22.1875
22.3102
22.4325
22.5544
22.676
22.7971
22.9178
23.0379
23.1577
23.2769
23.3956
23.5137
23.6313
23.7483
23.8647
23.9806
24.0958
24.2104
24.3243
24.4376
24.5502
24.6622
24.7734
24.884
24.9938
25.1029
25.2113
25.3189
25.4258
25.5319
25.6373
25.7419
25.8457
25.9488
26.051
26.1524
26.2531
26.3529
26.4519
26.5501
26.6475
26.744
26.8397
26.9346
27.0286
27.1218
27.2141
27.3056
27.3962
27.486
27.5749
27.663
27.7502
27.8366
27.922
28.0067
28.0904
28.1733
28.2553
28.3364
28.4167
28.4961
28.5747
28.6523
28.7291
28.8051
28.8801
28.9543
29.0276
29.1001
29.1717
29.2424
29.3122
29.3812
29.4493
29.5166
29.583
29.6485
29.7132
29.777
29.8399
29.902
29.9632
30.0236
30.0831
30.1418
30.1996
30.2565
30.3127
30.3679
30.4223
30.4759
30.5286
30.5805
30.6316
30.6818
30.7312
30.7797
30.8274
30.8743
30.9204
30.9656
31.01
31.0535
31.0963
31.1382
31.1793
31.2196
31.259
31.2977
31.3355
31.3725
31.4087
31.4441
31.4787
31.5125
31.5454
31.5776
31.609
31.6395
31.6693
31.6982
31.7264
31.7538
31.7803
31.8061
31.8311
31.8553
31.8787
31.9013
31.9231
31.9441
31.9644
31.9838
32.0025
32.0204
32.0375
32.0538
32.0693
32.0841
32.0981
32.1113
32.1237
32.1353
32.1462
32.1562
32.1655
32.1741
32.1818
32.1888
32.195
32.2004
32.2051
32.2089
32.212
32.2144
32.2159
32.2167
23.0261
23.015
22.9927
22.9595
22.9156
22.8614
22.7971
22.7234
22.6405
22.549
22.4494
22.3423
22.2282
22.1076
21.9812
21.8493
21.7126
21.5715
21.4265
21.2781
21.1266
20.9726
20.8162
20.6581
20.4983
20.3374
20.1755
20.013
19.8501
19.6871
19.5242
19.3617
19.1998
19.0386
18.8785
18.7195
18.5618
18.4058
18.2514
18.099
17.9485
17.8003
17.6544
17.511
17.3702
17.2321
17.0969
16.9646
16.8355
16.7095
16.5868
16.4675
16.3516
16.2392
16.1305
16.0254
15.9241
15.8266
15.7329
15.6431
15.5573
15.4755
15.3976
15.3239
15.2541
15.1885
15.127
15.0696
15.0162
14.9671
14.922
14.881
14.8442
14.8114
14.7827
14.7581
14.7375
14.7209
14.7082
14.6995
14.6948
14.6938
14.6968
14.7035
14.7139
14.7281
14.7459
14.7672
14.7922
14.8206
14.8525
14.8877
14.9262
14.968
15.013
15.0612
15.1124
15.1666
15.2237
15.2838
15.3466
15.4122
15.4805
15.5513
15.6247
15.7006
15.7789
15.8596
15.9425
16.0276
16.1149
16.2042
16.2955
16.3888
16.484
16.5809
16.6797
16.78
16.8821
16.9856
17.0907
17.1972
17.305
17.4142
17.5246
17.6362
17.749
17.8628
17.9776
18.0934
18.2102
18.3278
18.4461
18.5653
18.6852
18.8057
18.9268
19.0485
19.1707
19.2934
19.4165
19.54
19.6638
19.7879
19.9123
20.0369
20.1617
20.2866
20.4116
20.5367
20.6618
20.787
20.9121
21.0371
21.162
21.2868
21.4115
21.5359
21.6602
21.7842
21.908
22.0314
22.1545
22.2773
22.3998
22.5218
22.6434
22.7646