/*--------------------------------*- C++ -*----------------------------------*\
| =========                 |                                                 |
| \\      /  F ield         | OpenFOAM: The Open Source CFD Toolbox           |
|  \\    /   O peration     | Version:  2212                                  |
|   \\  /    A nd           | Website:  www.openfoam.com                      |
|    \\/     M anipulation  |                                                 |
\*---------------------------------------------------------------------------*/
FoamFile
{
    version     2.0;
    format      ascii;
    arch        "LSB;label=32;scalar=64";
    class       surfaceScalarField;
    location    "360";
    object      phi;
}
// * * * * * * * * * * * * * * * * * * * * * * * * * * * * * * * * * * * * * //

dimensions      [1 0 -1 0 0 0 0];

oriented        oriented;

internalField   nonuniform List<scalar> 
408640
(
-2317.37
2314.74
-4621.01
2302.74
-6896.2
2274.3
-9129.36
2232.26
-11309.3
2178.98
-13427.3
2117.16
-15477.8
2049.56
-17457.6
1978.85
-19366
1907.36
-21203.9
1837.01
-22974.1
1769.21
-24680
1704.95
-26325.7
1644.78
-27915.5
1588.93
-29453.8
1537.39
-30944.6
1489.93
-32391.6
1446.22
-33798.3
1405.87
-35167.6
1368.44
-36501.9
1333.51
-37803.4
1300.69
-39073.8
1269.62
-40314.6
1239.98
-41526.9
1211.52
-42711.6
1183.99
-43869.6
1157.21
-45001.4
1131.03
-46107.5
1105.34
-47188.3
1080.05
-48244.1
1055.08
-49275.2
1030.39
-50281.9
1005.94
-51264.3
981.711
-52222.8
957.686
-53157.3
933.853
-54068.3
910.207
-54955.7
886.743
-55819.9
863.461
-56661
840.359
-57479.1
817.436
-58274.5
794.694
-59047.3
772.134
-59797.8
749.755
-60526
727.559
-61232.2
705.547
-61916.6
683.721
-62579.4
662.082
-63220.6
640.632
-63840.7
619.372
-64439.6
598.305
-65017.7
577.431
-65575.1
556.754
-66112
536.274
-66628.6
515.995
-67125.2
495.918
-67601.8
476.045
-68058.8
456.379
-68496.3
436.922
-68914.6
417.676
-69313.9
398.644
-69694.3
379.826
-70056.1
361.227
-70399.5
342.847
-70724.7
324.69
-71032.1
306.756
-71321.7
289.049
-71593.8
271.57
-71848.6
254.32
-72086.5
237.303
-72307.5
220.519
-72512
203.971
-72700.2
187.659
-72872.3
171.585
-73028.5
155.751
-73169.2
140.158
-73294.5
124.807
-73404.7
109.699
-73500
94.8352
-73580.6
80.2158
-73646.9
65.842
-73699.1
51.7141
-73737.4
37.8326
-73762
24.1979
-73773.3
10.8101
-73771.4
-2.33061
-73756.6
-15.2244
-73729.1
-27.8714
-73689.2
-40.2719
-73637.2
-52.4264
-73573.2
-64.3353
-73497.6
-75.9993
-73410.6
-87.4192
-73312.4
-98.5958
-73203.2
-109.53
-73083.3
-120.224
-72953
-130.677
-72812.4
-140.892
-72661.9
-150.869
-72501.6
-160.611
-72331.8
-170.119
-72152.7
-179.394
-71964.6
-188.439
-71767.6
-197.256
-71562.1
-205.845
-71348.2
-214.21
-71126.1
-222.352
-70896.1
-230.274
-70658.4
-237.978
-70413.1
-245.467
-70160.6
-252.741
-69901.1
-259.805
-69634.7
-266.661
-69361.6
-273.311
-69082
-279.758
-68796.2
-286.004
-68504.4
-292.052
-68206.7
-297.905
-67903.3
-303.566
-67594.5
-309.038
-67280.3
-314.323
-66961.1
-319.424
-66636.9
-324.344
-66308
-329.086
-65974.5
-333.654
-65636.6
-338.049
-65294.4
-342.275
-64948.2
-346.335
-64598.1
-350.232
-64244.3
-353.969
-63886.9
-357.549
-63526
-360.974
-63161.8
-364.248
-62794.6
-367.374
-62424.3
-370.355
-62051.2
-373.193
-61675.4
-375.893
-61297
-378.455
-60916.2
-380.885
-60533
-383.183
-60147.7
-385.354
-59760.4
-387.401
-59371.1
-389.325
-58980
-391.13
-58587.2
-392.819
-58192.9
-394.394
-57797
-395.859
-57399.8
-397.215
-57001.3
-398.466
-56601.7
-399.615
-56201.1
-400.663
-55799.4
-401.614
-55397
-402.47
-54993.7
-403.234
-54589.8
-403.908
-54185.2
-404.494
-53780.2
-404.996
-53374.8
-405.415
-52969
-405.754
-52562.9
-406.015
-52156.6
-406.201
-51750.3
-406.314
-51343.8
-406.355
-50937.4
-406.328
-50531.1
-406.234
-50125
-406.076
-49719
-405.855
-49313.4
-405.574
-48908
-405.234
-48503.1
-404.838
-48098.6
-404.388
-47694.6
-403.885
-47291.2
-403.331
-46888.3
-402.728
-46486.1
-402.079
-46084.6
-401.384
-45683.8
-400.645
-45283.9
-399.865
-44884.7
-399.044
-44486.3
-398.184
-44088.9
-397.288
-43692.4
-396.356
-43296.9
-395.389
-42902.3
-394.391
-42508.8
-393.361
-42116.3
-392.301
-41725
-391.214
-41334.7
-390.099
-40945.6
-388.958
-40557.6
-387.794
-40170.8
-386.606
-39785.2
-385.396
-39400.9
-384.166
-39017.8
-382.916
-38635.9
-381.648
-38255.4
-380.362
-37876.1
-379.06
-37498.2
-377.743
-37121.6
-376.413
-36746.3
-375.069
-36372.4
-373.712
-35999.8
-372.345
-35628.6
-370.968
-35258.8
-369.581
-34890.4
-368.186
-34523.4
-366.783
-34157.9
-365.373
-33793.7
-363.957
-33430.9
-362.537
-33069.6
-361.111
-32709.7
-359.682
-32351.2
-358.251
-31994.1
-356.817
-31638.5
-355.381
-31284.3
-353.944
-30931.6
-352.507
-30580.3
-351.071
-30230.4
-349.635
-29882
-348.202
-29535
-346.77
-29189.4
-345.34
-28845.2
-343.915
-28502.5
-342.492
-28161.2
-341.074
-27821.3
-339.661
-27482.8
-338.253
-27145.7
-336.851
-26810
-335.454
-26475.6
-334.064
-26142.7
-332.682
-25811.2
-331.306
-25481
-329.938
-25152.1
-328.579
-24824.7
-327.228
-24498.5
-325.885
-24173.7
-324.552
-23850.2
-323.228
-23528.1
-321.915
-23207.2
-320.611
-22887.6
-319.318
-22569.3
-318.035
-22252.3
-316.764
-21936.6
-315.504
-21622
-314.255
-21308.8
-313.018
-20996.7
-311.793
-20685.9
-310.58
-20376.3
-309.38
-20067.8
-308.193
-19760.5
-307.018
-19454.4
-305.857
-19149.5
-304.709
-18845.6
-303.574
-18542.9
-302.453
-18241.3
-301.346
-17940.8
-300.253
-17641.4
-299.174
-17343.1
-298.109
-17045.7
-297.059
-16749.5
-296.023
-16454.2
-295.002
-16160
-293.996
-15866.7
-293.005
-15574.4
-292.029
-15283.1
-291.068
-14992.8
-290.123
-14703.3
-289.193
-14414.8
-288.279
-14127.2
-287.38
-13840.4
-286.497
-13554.6
-285.63
-13269.6
-284.779
-12985.4
-283.944
-12702
-283.125
-12419.4
-282.322
-12137.7
-281.535
-11856.7
-280.765
-11576.4
-280.011
-11296.9
-279.273
-11018.1
-278.552
-10740.1
-277.847
-10462.7
-277.159
-10185.9
-276.488
-9909.88
-275.833
-9634.45
-275.195
-9359.65
-274.574
-9085.45
-273.97
-8811.84
-273.383
-8538.8
-272.812
-8266.31
-272.259
-7994.36
-271.722
-7722.93
-271.203
-7452.01
-270.701
-7181.57
-270.215
-6911.6
-269.747
-6642.08
-269.296
-6373
-268.862
-6104.33
-268.445
-5836.06
-268.046
-5568.18
-267.664
-5300.66
-267.299
-5033.49
-266.951
-4766.65
-266.621
-4500.13
-266.307
-4233.9
-266.012
-3967.94
-265.733
-3702.26
-265.473
-3436.81
-265.229
-3171.59
-265.003
-2906.58
-264.795
-2641.76
-264.605
-2377.11
-264.433
-2112.62
-264.278
-1848.26
-264.143
-1584.02
-264.025
-1319.88
-263.927
-1055.81
-263.847
-791.814
-263.786
-527.856
-263.743
-263.923
-263.718
-263.709
-2297.49
4611.34
-4582.65
4587
-6841.43
4532.19
-9061.07
4451.01
-11231
4347.98
-13342.8
4228.08
-15390.8
4096.56
-17371.3
3958.43
-19283.1
3818.22
-21126.7
3679.61
-22903.9
3545.44
-24617.5
3417.68
-26271.2
3297.56
-27868.8
3185.63
-29414.3
3081.97
-30911.5
2986.26
-32364.1
2897.93
-33775.3
2816.25
-35148.1
2740.43
-36485.1
2669.68
-37788.4
2603.23
-39060
2540.39
-40301.3
2480.53
-41513.7
2423.11
-42698.1
2367.66
-43855.5
2313.8
-44986.4
2261.22
-46091.5
2209.67
-47171.2
2158.95
-48225.8
2108.93
-49255.6
2059.5
-50261
2010.57
-51242.1
1962.1
-52199.2
1914.04
-53132.4
1866.38
-54042
1819.1
-54928.2
1772.19
-55791.1
1725.64
-56630.9
1679.46
-57447.8
1633.63
-58241.9
1588.17
-59013.6
1543.07
-59762.8
1498.33
-60489.9
1453.96
-61195
1409.96
-61878.3
1366.33
-62539.9
1323.07
-63180.2
1280.19
-63799.1
1237.69
-64397.1
1195.58
-64974.1
1153.85
-65530.5
1112.52
-66066.5
1071.58
-66582.1
1031.04
-67077.8
990.907
-67553.5
951.181
-68009.6
911.868
-68446.3
872.973
-68863.7
834.5
-69262.1
796.453
-69641.7
758.837
-70002.7
721.657
-70345.3
684.916
-70669.8
648.619
-70976.4
612.77
-71265.3
577.373
-71536.7
542.433
-71790.8
507.952
-72028
473.935
-72248.4
440.385
-72452.3
407.305
-72639.8
374.699
-72811.3
342.569
-72967
310.919
-73107.1
279.75
-73231.8
249.065
-73341.4
218.865
-73436.2
189.154
-73516.4
159.932
-73582.2
131.201
-73633.9
102.962
-73671.8
75.2157
-73696
47.9627
-73706.8
21.2035
-73704.5
-5.06175
-73689.3
-30.8332
-73661.5
-56.1112
-73621.2
-80.8963
-73568.9
-105.189
-73504.6
-128.991
-73428.7
-152.304
-73341.3
-175.128
-73242.8
-197.466
-73133.4
-219.32
-73013.3
-240.691
-72882.7
-261.583
-72742
-281.998
-72591.2
-301.938
-72430.8
-321.408
-72260.8
-340.409
-72081.5
-358.946
-71893.3
-377.021
-71696.2
-394.64
-71490.5
-411.805
-71276.5
-428.521
-71054.3
-444.793
-70824.2
-460.623
-70586.5
-476.018
-70341.2
-490.982
-70088.7
-505.519
-69829.1
-519.634
-69562.6
-533.333
-69289.6
-546.62
-69010
-559.501
-68724.3
-571.982
-68432.5
-584.067
-68134.8
-595.762
-67831.5
-607.072
-67522.7
-618.004
-67208.7
-628.563
-66889.5
-638.755
-66565.4
-648.585
-66236.6
-658.059
-65903.2
-667.184
-65565.5
-675.964
-65223.5
-684.407
-64877.4
-692.517
-64527.5
-700.302
-64173.8
-707.766
-63816.5
-714.916
-63455.9
-721.758
-63091.9
-728.298
-62724.9
-734.542
-62354.8
-740.495
-61981.9
-746.164
-61606.3
-751.555
-61228.2
-756.672
-60847.6
-761.524
-60464.7
-766.114
-60079.7
-770.449
-59692.6
-774.534
-59303.6
-778.376
-58912.8
-781.98
-58520.3
-785.351
-58126.2
-788.496
-57730.7
-791.419
-57333.8
-794.126
-56935.6
-796.623
-56536.3
-798.914
-56136
-801.005
-55734.7
-802.902
-55332.5
-804.609
-54929.6
-806.132
-54526
-807.475
-54121.8
-808.643
-53717.1
-809.642
-53312
-810.477
-52906.6
-811.151
-52500.9
-811.669
-52095
-812.037
-51689
-812.259
-51282.9
-812.338
-50876.9
-812.281
-50471
-812.09
-50065.2
-811.77
-49659.7
-811.325
-49254.4
-810.76
-48849.4
-810.078
-48444.9
-809.284
-48040.8
-808.381
-47637.2
-807.372
-47234.2
-806.263
-46831.7
-805.055
-46429.9
-803.754
-46028.8
-802.362
-45628.5
-800.883
-45228.9
-799.32
-44830.1
-797.677
-44432.2
-795.957
-44035.2
-794.162
-43639.1
-792.297
-43243.9
-790.363
-42849.8
-788.365
-42456.7
-786.304
-42064.7
-784.184
-41673.7
-782.008
-41283.9
-779.777
-40895.2
-777.496
-40507.6
-775.166
-40121.2
-772.79
-39736.1
-770.37
-39352.2
-767.909
-38969.5
-765.408
-38588.1
-762.872
-38207.9
-760.3
-37829.1
-757.697
-37451.6
-755.063
-37075.4
-752.401
-36700.5
-749.713
-36327.1
-747.001
-35954.9
-744.267
-35584.2
-741.512
-35214.8
-738.739
-34846.8
-735.948
-34480.2
-733.143
-34115.1
-730.324
-33751.3
-727.493
-33389
-724.652
-33028.1
-721.802
-32668.6
-718.945
-32310.5
-716.082
-31953.9
-713.214
-31598.7
-710.343
-31244.9
-707.471
-30892.6
-704.598
-30541.7
-701.725
-30192.2
-698.855
-29844.2
-695.988
-29497.6
-693.125
-29152.5
-690.268
-28808.7
-687.416
-28466.4
-684.573
-28125.5
-681.738
-27786
-678.912
-27447.9
-676.097
-27111.2
-673.293
-26775.9
-670.501
-26442
-667.723
-26109.5
-664.958
-25778.3
-662.208
-25448.5
-659.473
-25120.1
-656.755
-24793
-654.054
-24467.3
-651.37
-24142.9
-648.705
-23819.8
-646.059
-23498
-643.432
-23177.6
-640.826
-22858.4
-638.24
-22540.5
-635.677
-22223.9
-633.135
-21908.5
-630.615
-21594.4
-628.119
-21281.5
-625.646
-20969.8
-623.197
-20659.4
-620.773
-20350.1
-618.374
-20042.1
-616
-19735.2
-613.652
-19429.5
-611.33
-19124.9
-609.035
-18821.4
-606.766
-18519.1
-604.525
-18217.9
-602.312
-17917.8
-600.126
-17618.7
-597.969
-17320.8
-595.841
-17023.8
-593.741
-16727.9
-591.671
-16433
-589.63
-16139.2
-587.619
-15846.3
-585.638
-15554.4
-583.687
-15263.4
-581.767
-14973.4
-579.877
-14684.4
-578.018
-14396.2
-576.19
-14109
-574.394
-13822.6
-572.629
-13537.1
-570.895
-13252.4
-569.194
-12968.6
-567.524
-12685.6
-565.887
-12403.4
-564.282
-12122
-562.709
-11841.4
-561.169
-11561.5
-559.662
-11282.3
-558.188
-11003.9
-556.746
-10726.2
-555.338
-10449.1
-553.963
-10172.8
-552.621
-9897.06
-551.312
-9621.99
-550.037
-9347.54
-548.796
-9073.7
-547.588
-8800.44
-546.414
-8527.75
-545.273
-8255.61
-544.167
-7984.02
-543.095
-7712.94
-542.056
-7442.36
-541.052
-7172.27
-540.082
-6902.65
-539.146
-6633.48
-538.244
-6364.74
-537.377
-6096.42
-536.544
-5828.5
-535.745
-5560.97
-534.981
-5293.79
-534.252
-5026.97
-533.557
-4760.48
-532.896
-4494.3
-532.27
-4228.41
-531.679
-3962.8
-531.123
-3697.46
-530.601
-3432.36
-530.115
-3167.48
-529.663
-2902.81
-529.247
-2638.33
-528.867
-2374.03
-528.522
-2109.88
-528.214
-1845.86
-527.942
-1581.97
-527.708
-1318.17
-527.511
-1054.45
-527.351
-790.792
-527.229
-527.177
-527.144
-263.586
-527.095
-527.081
-2275.42
6885.88
-4539.28
6849.98
-6778.97
6770.99
-8982.84
6653.97
-11141
6505.18
-13245.3
6331.53
-15290.1
6140.37
-17271.5
5938.81
-19187.5
5733.29
-21038
5529.15
-22824.1
5330.57
-24547.9
5140.53
-26212.2
4960.98
-27820.4
4792.91
-29376
4636.61
-30882.4
4491.78
-32343
4357.73
-33761.1
4233.53
-35139.6
4118.1
-36481.1
4010.35
-37787.9
3909.18
-39061.9
3813.58
-40304.7
3722.64
-41518
3635.54
-42702.6
3551.58
-43859.8
3470.16
-44990.1
3390.81
-46094.3
3313.11
-47172.9
3236.77
-48226.3
3161.55
-49254.8
3087.27
-50258.7
3013.8
-51238.4
2941.04
-52194
2868.94
-53125.8
2797.45
-54034
2726.53
-54918.7
2656.19
-55780.2
2586.39
-56618.6
2517.14
-57434.1
2448.44
-58226.9
2380.28
-58997.1
2312.66
-59745.1
2245.59
-60470.9
2179.07
-61174.7
2113.1
-61856.7
2047.69
-62517.1
1982.83
-63156.2
1918.55
-63774
1854.83
-64370.7
1791.69
-64946.6
1729.13
-65501.9
1667.16
-66036.7
1605.78
-66551.3
1545
-67045.9
1484.83
-67520.6
1425.27
-67975.6
1366.33
-68411.3
1308.01
-68827.7
1250.33
-69225.1
1193.29
-69603.8
1136.89
-69963.9
1081.15
-70305.6
1026.06
-70629.2
971.643
-70934.8
917.896
-71222.8
864.827
-71493.4
812.441
-71746.7
760.746
-71983.1
709.746
-72202.7
659.446
-72405.7
609.852
-72592.5
560.967
-72763.2
512.798
-72918.2
465.346
-73057.5
418.618
-73181.6
372.615
-73290.5
327.34
-73384.6
282.798
-73464.2
238.99
-73529.3
195.917
-73580.4
153.583
-73617.6
111.988
-73641.2
71.1321
-73651.5
31.0174
-73648.6
-8.35656
-73632.9
-46.9899
-73604.5
-84.883
-73563.8
-122.037
-73510.9
-158.453
-73446.1
-194.133
-73369.8
-229.078
-73282
-263.291
-73183
-296.775
-73073.2
-329.532
-72952.7
-361.566
-72821.7
-392.881
-72680.6
-423.481
-72529.5
-453.369
-72368.6
-482.55
-72198.3
-511.03
-72018.8
-538.813
-71830.2
-565.904
-71632.8
-592.31
-71426.9
-618.037
-71212.6
-643.09
-70990.2
-667.475
-70759.9
-691.2
-70521.9
-714.272
-70276.4
-736.696
-70023.7
-758.481
-69764
-779.634
-69497.4
-800.162
-69224.1
-820.074
-68944.5
-839.376
-68658.6
-858.077
-68366.7
-876.186
-68068.9
-893.709
-67765.6
-910.657
-67456.7
-927.036
-67142.6
-942.856
-66823.4
-958.126
-66499.3
-972.853
-66170.5
-987.047
-65837.1
-1000.72
-65499.3
-1013.87
-65157.4
-1026.52
-64811.3
-1038.67
-64461.4
-1050.33
-64107.8
-1061.51
-63750.6
-1072.22
-63390
-1082.47
-63026.2
-1092.26
-62659.2
-1101.61
-62289.2
-1110.53
-61916.5
-1119.02
-61541
-1127.09
-61163
-1134.76
-60782.6
-1142.02
-60399.8
-1148.89
-60015
-1155.38
-59628
-1161.5
-59239.2
-1167.25
-58848.6
-1172.64
-58456.3
-1177.69
-58062.4
-1182.39
-57667.1
-1186.77
-57270.4
-1190.82
-56872.5
-1194.55
-56473.4
-1197.98
-56073.3
-1201.11
-55672.3
-1203.94
-55270.4
-1206.49
-54867.7
-1208.77
-54464.4
-1210.77
-54060.5
-1212.52
-53656.1
-1214.01
-53251.2
-1215.25
-52846.1
-1216.26
-52440.7
-1217.03
-52035.1
-1217.57
-51629.4
-1217.9
-51223.6
-1218.01
-50817.9
-1217.92
-50412.3
-1217.62
-50006.9
-1217.14
-49601.7
-1216.47
-49196.7
-1215.61
-48792.1
-1214.58
-48387.9
-1213.39
-47984.2
-1212.03
-47580.9
-1210.51
-47178.2
-1208.84
-46776.1
-1207.03
-46374.7
-1205.07
-45974
-1202.98
-45574
-1200.76
-45174.7
-1198.41
-44776.3
-1195.94
-44378.8
-1193.36
-43982.2
-1190.66
-43586.5
-1187.86
-43191.7
-1184.96
-42798
-1181.96
-42405.2
-1178.86
-42013.6
-1175.68
-41623
-1172.41
-41233.6
-1169.07
-40845.2
-1165.64
-40458.1
-1162.14
-40072.1
-1158.58
-39687.4
-1154.95
-39303.8
-1151.25
-38921.5
-1147.5
-38540.5
-1143.7
-38160.8
-1139.84
-37782.4
-1135.93
-37405.3
-1131.98
-37029.5
-1127.99
-36655
-1123.95
-36281.9
-1119.89
-35910.2
-1115.78
-35539.9
-1111.65
-35170.9
-1107.49
-34803.3
-1103.3
-34437.1
-1099.1
-34072.4
-1094.87
-33709
-1090.62
-33347.1
-1086.36
-32986.6
-1082.09
-32627.5
-1077.8
-32269.9
-1073.51
-31913.6
-1069.2
-31558.9
-1064.9
-31205.5
-1060.59
-30853.6
-1056.28
-30503.1
-1051.97
-30154
-1047.67
-29806.4
-1043.37
-29460.2
-1039.07
-29115.5
-1034.79
-28772.1
-1030.51
-28430.2
-1026.25
-28089.7
-1022
-27750.6
-1017.76
-27412.9
-1013.54
-27076.6
-1009.33
-26741.7
-1005.15
-26408.2
-1000.98
-26076.1
-996.834
-25745.4
-992.71
-25416
-988.609
-25087.9
-984.533
-24761.3
-980.482
-24435.9
-976.458
-24111.9
-972.462
-23789.2
-968.493
-23467.8
-964.555
-23147.8
-960.647
-22829
-956.77
-22511.5
-952.925
-22195.2
-949.114
-21880.3
-945.336
-21566.5
-941.593
-21254
-937.885
-20942.8
-934.213
-20632.7
-930.578
-20323.9
-926.981
-20016.2
-923.421
-19709.7
-919.901
-19404.3
-916.419
-19100.1
-912.978
-18797.1
-909.576
-18495.1
-906.216
-18194.3
-902.898
-17894.6
-899.621
-17595.9
-896.387
-17298.3
-893.195
-17001.7
-890.048
-16706.2
-886.943
-16411.7
-883.883
-16118.2
-880.868
-15825.7
-877.898
-15534.2
-874.973
-15243.6
-872.093
-14954
-869.26
-14665.3
-866.473
-14377.5
-863.732
-14090.6
-861.039
-13804.6
-858.393
-13519.5
-855.794
-13235.2
-853.243
-12951.7
-850.74
-12669.1
-848.285
-12387.2
-845.878
-12106.2
-843.521
-11825.9
-841.212
-11546.4
-838.952
-11267.6
-836.741
-10989.5
-834.58
-10712.2
-832.468
-10435.5
-830.407
-10159.5
-828.395
-9884.13
-826.433
-9609.41
-824.521
-9335.32
-822.66
-9061.83
-820.849
-8788.93
-819.089
-8516.59
-817.379
-8244.81
-815.721
-7973.57
-814.113
-7702.85
-812.556
-7432.62
-811.051
-7162.88
-809.596
-6893.61
-808.193
-6624.8
-806.841
-6356.41
-805.541
-6088.44
-804.292
-5820.87
-803.095
-5553.68
-801.949
-5286.86
-800.855
-5020.38
-799.813
-4754.24
-798.823
-4488.41
-797.885
-4222.87
-796.999
-3957.61
-796.164
-3692.61
-795.382
-3427.86
-794.653
-3163.33
-793.976
-2899.01
-793.352
-2634.88
-792.782
-2370.92
-792.265
-2107.11
-791.803
-1843.45
-791.396
-1579.89
-791.044
-1316.44
-790.749
-1053.07
-790.51
-789.757
-790.327
-526.487
-790.2
-263.24
-790.127
-790.106
-2246.68
9131.68
-4482.97
9085.39
-6697.93
8985.06
-8881.33
8836.46
-11024.1
8647.05
-13118.8
8425.26
-15159.5
8180.1
-17142.1
7920.39
-19063.9
7654.15
-20924
7388.2
-22722.3
7127.95
-24460.1
6877.41
-26139.4
6639.29
-27762.6
6415.17
-29332.6
6205.66
-30852.3
6010.68
-32325
5829.55
-33753.6
5661.27
-35141
5504.61
-36489.7
5358.24
-37802.1
5220.83
-39080.4
5091.1
-40326.5
4967.86
-41541.7
4850.03
-42727.6
4736.69
-43885.2
4627
-45015.5
4520.3
-46119.1
4416.02
-47196.8
4313.72
-48249.1
4213.05
-49276.3
4113.75
-50278.8
4015.61
-51257
3918.48
-52211.1
3822.28
-53141.3
3726.92
-54047.8
3632.37
-54930.9
3538.58
-55790.8
3445.55
-56627.6
3353.25
-57441.5
3261.68
-58232.8
3170.84
-59001.5
3080.73
-59748
2991.34
-60472.3
2902.69
-61174.6
2814.78
-61855.2
2727.6
-62514.2
2641.17
-63151.8
2555.5
-63768.3
2470.59
-64363.6
2386.44
-64938.2
2303.07
-65492.2
2220.48
-66025.7
2138.67
-66539
2057.67
-67032.3
1977.48
-67505.7
1898.1
-67959.5
1819.55
-68394
1741.83
-68809.2
1664.96
-69205.4
1588.93
-69582.9
1513.77
-69941.8
1439.48
-70282.4
1366.06
-70604.8
1293.54
-70909.4
1221.91
-71196.3
1151.18
-71465.8
1081.37
-71718
1012.47
-71953.3
944.504
-72171.9
877.469
-72373.9
811.375
-72559.7
746.228
-72729.4
682.034
-72883.4
618.797
-73021.8
556.524
-73144.9
495.219
-73252.9
434.885
-73346.1
375.527
-73424.7
317.148
-73489
259.75
-73539.2
203.336
-73575.6
147.908
-73598.3
93.466
-73607.8
40.0118
-73604.1
-12.4546
-73587.6
-63.9334
-73558.4
-114.425
-73516.9
-163.932
-73463.3
-212.454
-73397.9
-259.995
-73320.8
-306.556
-73232.3
-352.141
-73132.7
-396.754
-73022.2
-440.398
-72901
-483.078
-72769.4
-524.799
-72627.7
-565.566
-72476
-605.385
-72314.6
-644.262
-72143.8
-682.203
-71963.7
-719.215
-71774.6
-755.306
-71576.7
-790.482
-71370.3
-824.753
-71155.5
-858.125
-70932.6
-890.608
-70701.9
-922.211
-70463.5
-952.942
-70217.6
-982.811
-69964.5
-1011.83
-69704.4
-1040
-69437.5
-1067.34
-69163.9
-1093.86
-68883.9
-1119.57
-68597.7
-1144.47
-68305.5
-1168.59
-68007.5
-1191.93
-67703.9
-1214.5
-67394.8
-1236.31
-67080.5
-1257.37
-66761.1
-1277.7
-66436.8
-1297.31
-66107.8
-1316.21
-65774.2
-1334.41
-65436.3
-1351.93
-65094.2
-1368.76
-64748.1
-1384.94
-64398.1
-1400.46
-64044.3
-1415.35
-63687.1
-1429.6
-63326.4
-1443.24
-62962.5
-1456.28
-62595.5
-1468.72
-62225.5
-1480.59
-61852.7
-1491.89
-61477.3
-1502.63
-61099.3
-1512.82
-60718.9
-1522.49
-60336.2
-1531.63
-59951.3
-1540.26
-59564.5
-1548.4
-59175.7
-1556.05
-58785.2
-1563.22
-58393
-1569.93
-57999.2
-1576.19
-57604
-1582
-57207.4
-1587.38
-56809.6
-1592.35
-56410.7
-1596.9
-56010.8
-1601.05
-55609.9
-1604.82
-55208.2
-1608.21
-54805.7
-1611.22
-54402.6
-1613.88
-53998.8
-1616.2
-53594.6
-1618.17
-53190
-1619.81
-52785.1
-1621.14
-52379.9
-1622.15
-51974.6
-1622.87
-51569.1
-1623.29
-51163.6
-1623.43
-50758.2
-1623.29
-50352.9
-1622.89
-49947.7
-1622.23
-49542.7
-1621.33
-49138.1
-1620.18
-48733.8
-1618.8
-48329.9
-1617.19
-47926.4
-1615.37
-47523.5
-1613.34
-47121.1
-1611.11
-46719.3
-1608.68
-46318.2
-1606.06
-45917.8
-1603.27
-45518.1
-1600.3
-45119.2
-1597.16
-44721.2
-1593.86
-44324
-1590.41
-43927.7
-1586.81
-43532.3
-1583.07
-43138
-1579.19
-42744.6
-1575.19
-42352.2
-1571.06
-41960.9
-1566.81
-41570.7
-1562.45
-41181.6
-1557.98
-40793.7
-1553.41
-40406.9
-1548.75
-40021.3
-1543.99
-39637
-1539.14
-39253.8
-1534.21
-38871.9
-1529.21
-38491.3
-1524.13
-38111.9
-1518.98
-37733.9
-1513.77
-37357.2
-1508.5
-36981.8
-1503.18
-36607.8
-1497.8
-36235.1
-1492.37
-35863.7
-1486.9
-35493.8
-1481.39
-35125.2
-1475.84
-34758.1
-1470.26
-34392.3
-1464.64
-34027.9
-1459.01
-33665
-1453.34
-33303.5
-1447.66
-32943.4
-1441.96
-32584.7
-1436.24
-32227.5
-1430.52
-31871.6
-1424.78
-31517.3
-1419.04
-31164.3
-1413.3
-30812.8
-1407.55
-30462.7
-1401.81
-30114.1
-1396.07
-29766.9
-1390.34
-29421.1
-1384.61
-29076.8
-1378.9
-28733.8
-1373.2
-28392.3
-1367.51
-28052.2
-1361.84
-27713.6
-1356.19
-27376.3
-1350.57
-27040.4
-1344.96
-26705.9
-1339.38
-26372.8
-1333.83
-26041.1
-1328.3
-25710.8
-1322.8
-25381.8
-1317.33
-25054.2
-1311.9
-24727.9
-1306.5
-24403
-1301.14
-24079.4
-1295.81
-23757.1
-1290.52
-23436.1
-1285.27
-23116.5
-1280.06
-22798.1
-1274.89
-22481
-1269.77
-22165.2
-1264.69
-21850.6
-1259.65
-21537.3
-1254.66
-21225.2
-1249.72
-20914.3
-1244.83
-20604.7
-1239.98
-20296.2
-1235.19
-19988.9
-1230.44
-19682.8
-1225.75
-19377.9
-1221.11
-19074.1
-1216.52
-18771.4
-1211.99
-18469.9
-1207.51
-18169.4
-1203.09
-17870.1
-1198.72
-17571.8
-1194.41
-17274.6
-1190.16
-16978.5
-1185.96
-16683.3
-1181.82
-16389.2
-1177.74
-16096.1
-1173.73
-15804
-1169.77
-15512.9
-1165.87
-15222.7
-1162.03
-14933.4
-1158.25
-14645.1
-1154.54
-14357.7
-1150.89
-14071.2
-1147.3
-13785.6
-1143.77
-13500.9
-1140.31
-13216.9
-1136.91
-12933.9
-1133.57
-12651.6
-1130.3
-12370.2
-1127.09
-12089.5
-1123.95
-11809.6
-1120.87
-11530.5
-1117.86
-11252.1
-1114.92
-10974.4
-1112.03
-10697.4
-1109.22
-10421.1
-1106.47
-10145.5
-1103.79
-9870.48
-1101.18
-9596.14
-1098.63
-9322.42
-1096.15
-9049.31
-1093.74
-8776.78
-1091.39
-8504.82
-1089.11
-8233.41
-1086.9
-7962.54
-1084.76
-7692.19
-1082.68
-7422.34
-1080.68
-7152.97
-1078.74
-6884.07
-1076.87
-6615.62
-1075.07
-6347.61
-1073.33
-6080.01
-1071.67
-5812.81
-1070.07
-5545.99
-1068.55
-5279.54
-1067.09
-5013.43
-1065.7
-4747.65
-1064.38
-4482.19
-1063.13
-4217.02
-1061.95
-3952.13
-1060.84
-3687.49
-1059.8
-3423.11
-1058.82
-3158.94
-1057.92
-2894.99
-1057.09
-2631.22
-1056.33
-2367.63
-1055.64
-2104.19
-1055.03
-1840.89
-1054.48
-1577.71
-1054.01
-1314.62
-1053.62
-1051.61
-1053.3
-788.665
-1053.06
-525.76
-1052.89
-262.879
-1052.79
-1052.77
-2220.64
11351.4
-4431.9
11295.8
-6624.36
11176.6
-8789.05
11000.2
-10917.8
10774.8
-13003.5
10510
-15040.5
10216.1
-17024.2
9903.14
-18951.7
9580.59
-20821
9256.49
-22631.4
8937.39
-24383.3
8628.27
-26077.6
8332.65
-27716.1
8052.76
-29301.1
7789.71
-30835
7543.69
-32320.6
7314.25
-33760.6
7100.41
-35157.7
6900.91
-36514.6
6714.3
-37833.7
6539.07
-39117.1
6373.74
-40366.9
6216.88
-41584.9
6067.17
-42772.4
5923.45
-43930.8
5784.68
-45061.3
5649.96
-46164.6
5518.58
-47241.5
5389.91
-48292.7
5263.48
-49318.6
5138.93
-50319.7
5015.95
-51296.3
4894.35
-52248.7
4773.97
-53177.2
4654.71
-54082.1
4536.49
-54963.5
4419.26
-55821.6
4302.98
-56656.7
4187.65
-57469
4073.23
-58258.5
3959.73
-59025.6
3847.14
-59770.4
3735.46
-60493.1
3624.7
-61193.9
3514.86
-61872.9
3405.94
-62530.3
3297.96
-63166.4
3190.92
-63781.3
3084.82
-64375.2
2979.69
-64948.3
2875.52
-65500.8
2772.33
-66032.9
2670.12
-66544.7
2568.91
-67036.6
2468.71
-67508.6
2369.53
-67961.1
2271.38
-68394.1
2174.28
-68808
2078.22
-69202.9
1983.23
-69579
1889.32
-69936.6
1796.49
-70275.9
1704.76
-70597
1614.14
-70900.3
1524.64
-71186
1436.27
-71454.2
1349.04
-71705.2
1262.96
-71939.3
1178.04
-72156.6
1094.28
-72357.4
1011.7
-72542
930.303
-72710.6
850.097
-72863.4
771.089
-73000.6
693.286
-73122.6
616.692
-73229.5
541.313
-73321.6
467.153
-73399.1
394.218
-73462.4
322.509
-73511.5
252.03
-73546.8
182.784
-73568.6
114.771
-73577
47.9924
-73572.3
-17.551
-73554.8
-81.8597
-73524.7
-144.935
-73482.3
-206.777
-73427.7
-267.39
-73361.3
-326.775
-73283.3
-384.936
-73194
-441.876
-73093.5
-497.601
-72982.1
-552.115
-72860.1
-605.424
-72727.7
-657.534
-72585.2
-708.451
-72432.7
-758.183
-72270.6
-806.737
-72099
-854.122
-71918.2
-900.345
-71728.3
-945.417
-71529.8
-989.346
-71322.7
-1032.14
-71107.3
-1073.82
-70883.8
-1114.38
-70652.4
-1153.84
-70413.4
-1192.21
-70167
-1229.51
-69913.3
-1265.74
-69652.6
-1300.92
-69385.1
-1335.05
-69111.1
-1368.16
-68830.6
-1400.25
-68543.9
-1431.35
-68251.3
-1461.45
-67952.8
-1490.58
-67648.8
-1518.75
-67339.3
-1545.98
-67024.6
-1572.27
-66704.8
-1597.65
-66380.1
-1622.13
-66050.8
-1645.71
-65716.9
-1668.43
-65378.7
-1690.28
-65036.3
-1711.29
-64689.9
-1731.48
-64339.7
-1750.84
-63985.7
-1769.41
-63628.3
-1787.2
-63267.4
-1804.22
-62903.3
-1820.48
-62536.1
-1836
-62166
-1850.8
-61793.1
-1864.89
-61417.5
-1878.29
-61039.4
-1891
-60658.9
-1903.05
-60276.1
-1914.45
-59891.2
-1925.22
-59504.3
-1935.36
-59115.5
-1944.89
-58724.9
-1953.83
-58332.7
-1962.19
-57938.9
-1969.98
-57543.7
-1977.22
-57147.2
-1983.93
-56749.4
-1990.1
-56350.6
-1995.77
-55950.7
-2000.94
-55549.9
-2005.62
-55148.2
-2009.83
-54745.8
-2013.59
-54342.8
-2016.89
-53939.2
-2019.76
-53535.1
-2022.2
-53130.7
-2024.24
-52725.9
-2025.88
-52320.9
-2027.13
-51915.7
-2028
-51510.4
-2028.51
-51105.1
-2028.66
-50699.8
-2028.48
-50294.7
-2027.96
-49889.7
-2027.12
-49485
-2025.97
-49080.6
-2024.52
-48676.5
-2022.78
-48272.8
-2020.76
-47869.6
-2018.47
-47466.9
-2015.92
-47064.8
-2013.11
-46663.3
-2010.07
-46262.5
-2006.78
-45862.3
-2003.28
-45463
-1999.55
-45064.4
-1995.62
-44666.6
-1991.49
-44269.7
-1987.16
-43873.7
-1982.65
-43478.7
-1977.97
-43084.6
-1973.11
-42691.5
-1968.1
-42299.5
-1962.93
-41908.6
-1957.61
-41518.7
-1952.15
-41129.9
-1946.56
-40742.3
-1940.84
-40355.9
-1935
-39970.7
-1929.05
-39586.7
-1922.98
-39203.9
-1916.82
-38822.3
-1910.56
-38442.1
-1904.2
-38063.1
-1897.76
-37685.4
-1891.25
-37309.1
-1884.65
-36934.1
-1877.99
-36560.4
-1871.26
-36188.1
-1864.48
-35817.1
-1857.63
-35447.6
-1850.74
-35079.4
-1843.8
-34712.6
-1836.82
-34347.2
-1829.8
-33983.3
-1822.75
-33620.7
-1815.67
-33259.6
-1808.57
-32899.9
-1801.44
-32541.6
-1794.29
-32184.8
-1787.13
-31829.4
-1779.96
-31475.4
-1772.79
-31122.8
-1765.6
-30771.7
-1758.42
-30422.1
-1751.24
-30073.8
-1744.07
-29727
-1736.9
-29381.7
-1729.74
-29037.7
-1722.6
-28695.2
-1715.48
-28354.1
-1708.37
-28014.4
-1701.28
-27676.1
-1694.22
-27339.3
-1687.19
-27003.8
-1680.18
-26669.7
-1673.2
-26337
-1666.26
-26005.7
-1659.35
-25675.8
-1652.48
-25347.2
-1645.65
-25020
-1638.86
-24694.2
-1632.11
-24369.6
-1625.41
-24046.4
-1618.75
-23724.6
-1612.14
-23404
-1605.58
-23084.8
-1599.07
-22766.8
-1592.61
-22450.1
-1586.2
-22134.7
-1579.85
-21820.5
-1573.56
-21507.6
-1567.33
-21195.9
-1561.15
-20885.5
-1555.03
-20576.2
-1548.98
-20268.1
-1542.99
-19961.3
-1537.06
-19655.6
-1531.19
-19351
-1525.4
-19047.6
-1519.66
-18745.4
-1514
-18444.2
-1508.4
-18144.2
-1502.87
-17845.2
-1497.42
-17547.4
-1492.03
-17250.6
-1486.72
-16954.8
-1481.47
-16660.1
-1476.3
-16366.4
-1471.21
-16073.7
-1466.19
-15781.9
-1461.24
-15491.2
-1456.37
-15201.4
-1451.57
-14912.6
-1446.85
-14624.6
-1442.21
-14337.6
-1437.65
-14051.5
-1433.16
-13766.3
-1428.76
-13481.9
-1424.43
-13198.4
-1420.18
-12915.7
-1416.01
-12633.9
-1411.93
-12352.8
-1407.92
-12072.5
-1403.99
-11793
-1400.15
-11514.3
-1396.38
-11236.2
-1392.7
-10958.9
-1389.1
-10682.3
-1385.59
-10406.4
-1382.16
-10131.2
-1378.81
-9856.58
-1375.54
-9582.62
-1372.36
-9309.29
-1369.26
-9036.55
-1366.24
-8764.4
-1363.31
-8492.83
-1360.46
-8221.8
-1357.7
-7951.31
-1355.02
-7681.33
-1352.43
-7411.86
-1349.93
-7142.87
-1347.5
-6874.35
-1345.17
-6606.28
-1342.92
-6338.64
-1340.75
-6071.42
-1338.67
-5804.59
-1336.68
-5538.15
-1334.77
-5272.07
-1332.95
-5006.34
-1331.22
-4740.94
-1329.57
-4475.85
-1328
-4211.05
-1326.53
-3946.53
-1325.14
-3682.28
-1323.84
-3418.26
-1322.62
-3154.47
-1321.5
-2890.89
-1320.46
-2627.5
-1319.51
-2364.28
-1318.65
-2101.22
-1317.88
-1838.29
-1317.2
-1575.47
-1316.61
-1312.76
-1316.12
-1050.12
-1315.72
-787.549
-1315.42
-525.015
-1315.21
-262.505
-1315.09
-1315.06
-2193.56
13544.1
-4378.91
13480.2
-6548.09
13344.9
-8693.34
13144.5
-10807.4
12887.9
-12883.7
12585.3
-14916.6
12248
-16901.5
11887
-18834.8
11512.9
-20714
11134.6
-22537.4
10759.8
-24304.5
10394.4
-26015.5
10042.6
-27671.2
9707.48
-29273.1
9390.7
-30823.2
9092.91
-32323.9
8813.96
-33777.4
8553.06
-35186.4
8309.03
-36553.3
8080.42
-37880.7
7865.64
-39170.9
7663.05
-40425.8
7471.04
-41647.5
7288.1
-42837.7
7112.82
-43997.7
6943.95
-45128.9
6780.39
-46232.3
6621.22
-47308.8
6465.65
-48359.1
6313.06
-49383.9
6162.93
-50383.6
6014.89
-51358.6
5868.65
-52309.3
5723.98
-53236.1
5580.73
-54139.1
5438.8
-55018.6
5298.1
-55874.9
5158.57
-56708.2
5020.19
-57518.6
4882.93
-58306.3
4746.78
-59071.6
4611.73
-59814.6
4477.77
-60535.5
4344.92
-61234.5
4213.17
-61911.8
4082.53
-62567.5
3953.01
-63201.9
3824.62
-63815
3697.36
-64407.3
3571.25
-64978.7
3446.3
-65529.5
3322.52
-66060
3199.93
-66570.2
3078.52
-67060.4
2958.33
-67530.9
2839.36
-67981.7
2721.63
-68413.2
2605.14
-68825.5
2489.92
-69218.8
2375.97
-69593.4
2263.32
-69949.5
2151.97
-70287.2
2041.94
-70606.9
1933.23
-70908.6
1825.87
-71192.8
1719.87
-71459.5
1615.23
-71709.1
1511.98
-71941.7
1410.11
-72157.6