/*--------------------------------*- C++ -*----------------------------------*\
| =========                 |                                                 |
| \\      /  F ield         | OpenFOAM: The Open Source CFD Toolbox           |
|  \\    /   O peration     | Version:  2212                                  |
|   \\  /    A nd           | Website:  www.openfoam.com                      |
|    \\/     M anipulation  |                                                 |
\*---------------------------------------------------------------------------*/
FoamFile
{
    version     2.0;
    format      ascii;
    arch        "LSB;label=32;scalar=64";
    class       volScalarField;
    location    "700";
    object      p_rgh_0;
}
// * * * * * * * * * * * * * * * * * * * * * * * * * * * * * * * * * * * * * //

dimensions      [1 -1 -2 0 0 0 0];

internalField   nonuniform List<scalar> 
204800
(
47.8967
47.8939
47.8875
47.8779
47.8645
47.8474
47.8264
47.8016
47.773
47.7408
47.7052
47.6662
47.6239
47.5786
47.5302
47.4787
47.4244
47.3671
47.3071
47.2442
47.1785
47.1101
47.0391
46.9655
46.8892
46.8105
46.7293
46.6456
46.5596
46.4713
46.3807
46.2879
46.1929
46.0958
45.9967
45.8956
45.7926
45.6877
45.581
45.4725
45.3623
45.2505
45.1372
45.0223
44.9059
44.7882
44.6692
44.5489
44.4274
44.3047
44.181
44.0562
43.9305
43.8039
43.6765
43.5483
43.4194
43.2898
43.1597
43.029
42.8979
42.7663
42.6344
42.5022
42.3698
42.2373
42.1045
41.9718
41.839
41.7063
41.5737
41.4412
41.309
41.177
41.0453
40.914
40.7831
40.6527
40.5228
40.3934
40.2646
40.1365
40.0091
39.8824
39.7564
39.6313
39.5071
39.3837
39.2613
39.1398
39.0193
38.8999
38.7816
38.6643
38.5482
38.4332
38.3195
38.2069
38.0956
37.9856
37.8769
37.7695
37.6634
37.5587
37.4554
37.3535
37.2531
37.154
37.0564
36.9603
36.8657
36.7726
36.681
36.5909
36.5023
36.4153
36.3298
36.2459
36.1636
36.0828
36.0036
35.926
35.85
35.7755
35.7026
35.6313
35.5616
35.4935
35.427
35.362
35.2986
35.2368
35.1766
35.1179
35.0608
35.0052
34.9512
34.8987
34.8477
34.7982
34.7503
34.7038
34.6589
34.6154
34.5734
34.5328
34.4937
34.456
34.4197
34.3848
34.3513
34.3192
34.2884
34.259
34.2309
34.2041
34.1786
34.1544
34.1315
34.1098
34.0893
34.07
34.052
34.0351
34.0194
34.0048
33.9914
33.9791
33.9678
33.9577
33.9486
33.9405
33.9334
33.9274
33.9223
33.9182
33.915
33.9128
33.9114
33.911
33.9114
33.9127
33.9148
33.9177
33.9215
33.926
33.9312
33.9372
33.944
33.9514
33.9595
33.9683
33.9777
33.9878
33.9985
34.0098
34.0217
34.0342
34.0471
34.0607
34.0747
34.0892
34.1043
34.1198
34.1357
34.1521
34.1688
34.186
34.2036
34.2215
34.2398
34.2584
34.2774
34.2967
34.3162
34.336
34.3561
34.3765
34.3971
34.4179
34.4389
34.4601
34.4815
34.5031
34.5248
34.5467
34.5687
34.5908
34.613
34.6353
34.6577
34.6802
34.7027
34.7253
34.7479
34.7705
34.7932
34.8159
34.8385
34.8611
34.8837
34.9063
34.9288
34.9513
34.9737
34.996
35.0182
35.0404
35.0624
35.0843
35.1061
35.1278
35.1493
35.1707
35.1919
35.213
35.2339
35.2546
35.2752
35.2955
35.3157
35.3356
35.3553
35.3748
35.3941
35.4131
35.4319
35.4505
35.4688
35.4869
35.5047
35.5222
35.5394
35.5564
35.5731
35.5895
35.6056
35.6214
35.6369
35.652
35.6669
35.6815
35.6957
35.7096
35.7232
35.7364
35.7493
35.7619
35.7741
35.786
35.7975
35.8087
35.8195
35.8299
35.84
35.8497
35.8591
35.8681
35.8767
35.8849
35.8928
35.9002
35.9073
35.914
35.9203
35.9263
35.9318
35.937
35.9417
35.9461
35.9501
35.9537
35.9569
35.9597
35.9621
35.9641
35.9656
35.9668
35.9676
35.968
47.8259
47.8215
47.8126
47.7999
47.7832
47.7631
47.7396
47.7127
47.6827
47.6495
47.6131
47.5736
47.5311
47.4856
47.4371
47.3857
47.3314
47.2741
47.2141
47.1513
47.0857
47.0174
46.9465
46.873
46.7969
46.7182
46.6371
46.5536
46.4678
46.3796
46.2891
46.1965
46.1017
46.0047
45.9058
45.8049
45.702
45.5973
45.4908
45.3825
45.2725
45.1609
45.0477
44.933
44.8169
44.6994
44.5806
44.4605
44.3392
44.2167
44.0932
43.9687
43.8432
43.7168
43.5896
43.4616
43.3329
43.2036
43.0737
42.9433
42.8124
42.6811
42.5494
42.4175
42.2853
42.1529
42.0205
41.8879
41.7554
41.6229
41.4905
41.3583
41.2263
41.0946
40.9631
40.8321
40.7014
40.5712
40.4415
40.3124
40.1839
40.056
39.9288
39.8023
39.6766
39.5517
39.4277
39.3046
39.1823
39.0611
38.9409
38.8217
38.7035
38.5865
38.4706
38.3558
38.2423
38.13
38.0189
37.9091
37.8005
37.6933
37.5875
37.483
37.3799
37.2782
37.1779
37.079
36.9816
36.8857
36.7913
36.6983
36.6069
36.517
36.4286
36.3417
36.2564
36.1727
36.0905
36.0099
35.9308
35.8534
35.7775
35.7032
35.6304
35.5593
35.4897
35.4217
35.3553
35.2905
35.2273
35.1656
35.1055
35.0469
34.9899
34.9344
34.8805
34.8281
34.7772
34.7279
34.68
34.6337
34.5888
34.5454
34.5035
34.463
34.424
34.3863
34.3501
34.3153
34.2819
34.2498
34.2191
34.1898
34.1618
34.135
34.1096
34.0854
34.0626
34.0409
34.0205
34.0013
33.9833
33.9665
33.9508
33.9363
33.9229
33.9106
33.8994
33.8892
33.8801
33.8721
33.8651
33.859
33.854
33.8499
33.8467
33.8445
33.8432
33.8428
33.8432
33.8445
33.8466
33.8495
33.8533
33.8578
33.863
33.869
33.8758
33.8832
33.8913
33.9001
33.9095
33.9196
33.9303
33.9416
33.9534
33.9659
33.9789
33.9924
34.0064
34.0209
34.0359
34.0514
34.0673
34.0836
34.1004
34.1176
34.1351
34.153
34.1713
34.1899
34.2088
34.228
34.2476
34.2674
34.2874
34.3078
34.3283
34.3491
34.3701
34.3913
34.4126
34.4342
34.4558
34.4777
34.4996
34.5217
34.5439
34.5662
34.5885
34.611
34.6335
34.656
34.6786
34.7012
34.7238
34.7464
34.769
34.7916
34.8142
34.8367
34.8592
34.8816
34.904
34.9263
34.9485
34.9706
34.9926
35.0145
35.0362
35.0579
35.0794
35.1007
35.1219
35.1429
35.1638
35.1845
35.205
35.2253
35.2454
35.2653
35.285
35.3045
35.3237
35.3427
35.3615
35.38
35.3983
35.4163
35.4341
35.4516
35.4688
35.4857
35.5024
35.5187
35.5348
35.5506
35.5661
35.5812
35.5961
35.6106
35.6248
35.6387
35.6522
35.6655
35.6783
35.6909
35.7031
35.7149
35.7264
35.7376
35.7484
35.7588
35.7689
35.7786
35.7879
35.7969
35.8055
35.8137
35.8215
35.829
35.8361
35.8427
35.8491
35.855
35.8605
35.8657
35.8704
35.8748
35.8788
35.8823
35.8855
35.8883
35.8907
35.8927
35.8943
35.8955
35.8963
35.8967
47.8095
47.8052
47.7964
47.7837
47.7671
47.7471
47.7235
47.6967
47.6666
47.6333
47.5969
47.5574
47.5148
47.4693
47.4207
47.3692
47.3148
47.2576
47.1975
47.1346
47.069
47.0007
46.9297
46.8561
46.78
46.7013
46.6202
46.5367
46.4508
46.3626
46.2721
46.1794
46.0846
45.9876
45.8887
45.7877
45.6849
45.5801
45.4736
45.3653
45.2553
45.1436
45.0305
44.9158
44.7996
44.6821
44.5632
44.4431
44.3218
44.1994
44.0758
43.9513
43.8258
43.6994
43.5722
43.4442
43.3155
43.1862
43.0563
42.9258
42.7949
42.6636
42.5319
42.4
42.2678
42.1355
42.003
41.8705
41.7379
41.6055
41.4731
41.3409
41.2089
41.0771
40.9457
40.8146
40.684
40.5538
40.4241
40.295
40.1664
40.0386
39.9114
39.7849
39.6592
39.5343
39.4103
39.2872
39.165
39.0438
38.9235
38.8044
38.6862
38.5692
38.4533
38.3386
38.2251
38.1127
38.0017
37.8919
37.7834
37.6762
37.5704
37.4659
37.3628
37.2611
37.1608
37.062
36.9646
36.8687
36.7743
36.6814
36.59
36.5001
36.4117
36.3249
36.2396
36.1559
36.0737
35.9931
35.9141
35.8367
35.7608
35.6865
35.6138
35.5427
35.4732
35.4052
35.3388
35.274
35.2108
35.1491
35.089
35.0305
34.9735
34.9181
34.8642
34.8118
34.761
34.7117
34.6638
34.6175
34.5727
34.5293
34.4874
34.4469
34.4079
34.3703
34.3341
34.2994
34.266
34.2339
34.2033
34.1739
34.1459
34.1192
34.0938
34.0697
34.0468
34.0252
34.0048
33.9856
33.9677
33.9509
33.9352
33.9207
33.9073
33.8951
33.8839
33.8738
33.8647
33.8567
33.8497
33.8437
33.8386
33.8345
33.8314
33.8292
33.8279
33.8275
33.828
33.8293
33.8314
33.8344
33.8381
33.8426
33.8479
33.8539
33.8607
33.8681
33.8763
33.8851
33.8945
33.9046
33.9153
33.9266
33.9385
33.9509
33.9639
33.9775
33.9915
34.006
34.021
34.0365
34.0525
34.0688
34.0856
34.1028
34.1203
34.1382
34.1565
34.1751
34.1941
34.2133
34.2328
34.2527
34.2727
34.2931
34.3136
34.3344
34.3554
34.3766
34.398
34.4195
34.4412
34.4631
34.485
34.5071
34.5293
34.5516
34.574
34.5964
34.6189
34.6415
34.664
34.6866
34.7093
34.7319
34.7545
34.7771
34.7997
34.8222
34.8447
34.8671
34.8895
34.9118
34.934
34.9561
34.9781
35
35.0217
35.0434
35.0649
35.0862
35.1074
35.1285
35.1493
35.17
35.1905
35.2108
35.2309
35.2509
35.2705
35.29
35.3093
35.3283
35.3471
35.3656
35.3839
35.4019
35.4196
35.4371
35.4544
35.4713
35.488
35.5043
35.5204
35.5362
35.5516
35.5668
35.5816
35.5962
35.6104
35.6243
35.6378
35.651
35.6639
35.6765
35.6887
35.7005
35.712
35.7232
35.734
35.7444
35.7545
35.7642
35.7735
35.7825
35.791
35.7993
35.8071
35.8146
35.8216
35.8283
35.8346
35.8406
35.8461
35.8513
35.856
35.8604
35.8643
35.8679
35.8711
35.8739
35.8763
35.8783
35.8799
35.8811
35.8819
35.8823
47.7432
47.7384
47.7287
47.7147
47.6968
47.6753
47.6504
47.6225
47.5914
47.5574
47.5204
47.4804
47.4375
47.3916
47.3429
47.2912
47.2367
47.1794
47.1193
47.0564
46.9907
46.9224
46.8515
46.7779
46.7018
46.6232
46.5421
46.4586
46.3728
46.2846
46.1942
46.1016
46.0069
45.91
45.8111
45.7103
45.6075
45.5028
45.3964
45.2882
45.1783
45.0668
44.9537
44.8391
44.7231
44.6057
44.4869
44.3669
44.2457
44.1234
44
43.8756
43.7502
43.624
43.4969
43.3691
43.2405
43.1113
42.9815
42.8512
42.7205
42.5893
42.4578
42.326
42.194
42.0618
41.9294
41.7971
41.6647
41.5324
41.4001
41.2681
41.1362
41.0046
40.8734
40.7424
40.612
40.4819
40.3524
40.2234
40.0951
39.9673
39.8403
39.714
39.5885
39.4638
39.3399
39.2169
39.0949
38.9738
38.8537
38.7347
38.6167
38.4999
38.3841
38.2696
38.1562
38.044
37.9331
37.8235
37.7151
37.6081
37.5024
37.3981
37.2951
37.1936
37.0935
36.9948
36.8976
36.8018
36.7075
36.6147
36.5235
36.4337
36.3455
36.2588
36.1737
36.0901
36.008
35.9276
35.8487
35.7714
35.6956
35.6215
35.5489
35.4779
35.4085
35.3406
35.2744
35.2097
35.1466
35.085
35.025
34.9666
34.9097
34.8544
34.8006
34.7483
34.6976
34.6484
34.6007
34.5544
34.5097
34.4664
34.4246
34.3842
34.3453
34.3078
34.2717
34.237
34.2037
34.1717
34.1411
34.1119
34.0839
34.0573
34.032
34.0079
33.9851
33.9636
33.9432
33.9241
33.9062
33.8894
33.8739
33.8594
33.8461
33.8339
33.8227
33.8127
33.8037
33.7957
33.7887
33.7827
33.7777
33.7737
33.7706
33.7685
33.7672
33.7668
33.7673
33.7686
33.7708
33.7738
33.7776
33.7821
33.7874
33.7935
33.8002
33.8077
33.8159
33.8247
33.8342
33.8443
33.855
33.8663
33.8782
33.8906
33.9037
33.9172
33.9312
33.9458
33.9608
33.9763
33.9922
34.0086
34.0254
34.0425
34.0601
34.078
34.0963
34.1149
34.1338
34.1531
34.1726
34.1924
34.2125
34.2328
34.2534
34.2742
34.2952
34.3163
34.3377
34.3592
34.3809
34.4028
34.4247
34.4468
34.469
34.4913
34.5136
34.536
34.5585
34.5811
34.6036
34.6262
34.6488
34.6714
34.694
34.7166
34.7392
34.7617
34.7842
34.8066
34.8289
34.8512
34.8734
34.8955
34.9175
34.9393
34.9611
34.9827
35.0042
35.0255
35.0467
35.0677
35.0886
35.1093
35.1297
35.15
35.1701
35.19
35.2097
35.2291
35.2484
35.2674
35.2861
35.3046
35.3229
35.3409
35.3587
35.3761
35.3933
35.4103
35.4269
35.4433
35.4593
35.4751
35.4905
35.5057
35.5205
35.535
35.5492
35.5631
35.5766
35.5898
35.6027
35.6152
35.6274
35.6393
35.6508
35.6619
35.6727
35.6831
35.6932
35.7028
35.7122
35.7211
35.7297
35.7379
35.7458
35.7532
35.7603
35.767
35.7733
35.7792
35.7847
35.7899
35.7946
35.799
35.8029
35.8065
35.8097
35.8125
35.8149
35.8169
35.8184
35.8196
35.8204
35.8208
47.7162
47.7116
47.702
47.6883
47.6705
47.6492
47.6245
47.5966
47.5655
47.5315
47.4944
47.4543
47.4113
47.3653
47.3165
47.2647
47.2101
47.1527
47.0925
47.0295
46.9638
46.8954
46.8243
46.7507
46.6745
46.5958
46.5147
46.4311
46.3452
46.257
46.1665
46.0739
45.9791
45.8822
45.7832
45.6823
45.5795
45.4748
45.3683
45.26
45.1501
45.0385
44.9254
44.8108
44.6947
44.5772
44.4585
44.3384
44.2172
44.0948
43.9714
43.847
43.7216
43.5953
43.4682
43.3403
43.2117
43.0825
42.9527
42.8223
42.6915
42.5603
42.4288
42.297
42.1649
42.0327
41.9004
41.768
41.6356
41.5032
41.371
41.2389
41.107
40.9754
40.8442
40.7132
40.5827
40.4527
40.3232
40.1942
40.0658
39.9381
39.8111
39.6848
39.5592
39.4345
39.3107
39.1877
39.0657
38.9446
38.8245
38.7055
38.5876
38.4707
38.355
38.2404
38.1271
38.0149
37.904
37.7944
37.6861
37.5791
37.4734
37.3691
37.2662
37.1647
37.0646
36.9659
36.8687
36.773
36.6787
36.586
36.4948
36.405
36.3168
36.2302
36.1451
36.0615
35.9795
35.8991
35.8203
35.743
35.6673
35.5932
35.5206
35.4497
35.3803
35.3125
35.2463
35.1816
35.1186
35.0571
34.9971
34.9388
34.8819
34.8266
34.7729
34.7207
34.67
34.6208
34.5731
34.5269
34.4822
34.439
34.3973
34.3569
34.3181
34.2806
34.2445
34.2099
34.1766
34.1447
34.1142
34.085
34.0571
34.0305
34.0052
33.9812
33.9585
33.937
33.9167
33.8976
33.8797
33.863
33.8475
33.8331
33.8198
33.8076
33.7966
33.7865
33.7776
33.7696
33.7627
33.7568
33.7518
33.7478
33.7448
33.7427
33.7414
33.7411
33.7416
33.743
33.7452
33.7482
33.7521
33.7567
33.762
33.7681
33.7749
33.7824
33.7906
33.7994
33.809
33.8191
33.8298
33.8412
33.8531
33.8656
33.8787
33.8922
33.9063
33.9209
33.9359
33.9514
33.9674
33.9838
34.0006
34.0178
34.0354
34.0533
34.0716
34.0903
34.1093
34.1285
34.1481
34.1679
34.188
34.2084
34.2289
34.2497
34.2708
34.292
34.3134
34.3349
34.3566
34.3785
34.4004
34.4225
34.4447
34.467
34.4894
34.5119
34.5344
34.5569
34.5795
34.6021
34.6247
34.6474
34.67
34.6926
34.7152
34.7377
34.7602
34.7826
34.805
34.8272
34.8494
34.8715
34.8935
34.9154
34.9372
34.9588
34.9803
35.0016
35.0228
35.0439
35.0647
35.0854
35.1059
35.1262
35.1463
35.1662
35.1859
35.2053
35.2246
35.2436
35.2624
35.2809
35.2991
35.3172
35.3349
35.3524
35.3696
35.3865
35.4032
35.4195
35.4356
35.4514
35.4668
35.482
35.4968
35.5113
35.5255
35.5394
35.5529
35.5662
35.579
35.5916
35.6038
35.6156
35.6271
35.6382
35.649
35.6594
35.6695
35.6792
35.6885
35.6975
35.7061
35.7143
35.7221
35.7296
35.7366
35.7433
35.7496
35.7555
35.7611
35.7662
35.771
35.7753
35.7793
35.7829
35.7861
35.7888
35.7912
35.7932
35.7948
35.796
35.7968
35.7972
47.6547
47.6499
47.64
47.6259
47.6076
47.5857
47.5604
47.5319
47.5003
47.4657
47.4282
47.3877
47.3444
47.2981
47.249
47.1971
47.1423
47.0847
47.0244
46.9613
46.8955
46.827
46.7559
46.6823
46.606
46.5273
46.4462
46.3626
46.2767
46.1884
46.098
46.0053
45.9105
45.8136
45.7146
45.6137
45.5109
45.4062
45.2998
45.1915
45.0816
44.9701
44.857
44.7424
44.6264
44.509
44.3902
44.2702
44.149
44.0267
43.9033
43.7789
43.6536
43.5274
43.4003
43.2725
43.1439
43.0148
42.885
42.7548
42.624
42.4929
42.3614
42.2297
42.0977
41.9656
41.8333
41.701
41.5687
41.4364
41.3042
41.1723
41.0405
40.909
40.7778
40.6469
40.5165
40.3866
40.2571
40.1282
40
39.8723
39.7454
39.6192
39.4938
39.3692
39.2454
39.1225
39.0006
38.8797
38.7597
38.6408
38.5229
38.4062
38.2906
38.1761
38.0629
37.9508
37.84
37.7305
37.6223
37.5154
37.4099
37.3057
37.2029
37.1015
37.0015
36.9029
36.8058
36.7102
36.6161
36.5234
36.4323
36.3427
36.2546
36.1681
36.0831
35.9997
35.9178
35.8375
35.7587
35.6816
35.606
35.5319
35.4595
35.3887
35.3194
35.2517
35.1856
35.1211
35.0581
34.9967
34.9369
34.8786
34.8219
34.7667
34.713
34.6609
34.6103
34.5613
34.5137
34.4676
34.423
34.3799
34.3382
34.298
34.2592
34.2218
34.1858
34.1513
34.1181
34.0863
34.0558
34.0267
33.9989
33.9724
33.9472
33.9233
33.9006
33.8792
33.859
33.84
33.8222
33.8056
33.7901
33.7758
33.7626
33.7505
33.7394
33.7295
33.7206
33.7127
33.7059
33.7
33.6951
33.6912
33.6882
33.6861
33.685
33.6847
33.6853
33.6867
33.6889
33.692
33.6959
33.7005
33.7059
33.712
33.7189
33.7264
33.7347
33.7436
33.7531
33.7633
33.7741
33.7855
33.7975
33.81
33.8231
33.8367
33.8508
33.8654
33.8805
33.896
33.912
33.9284
33.9452
33.9625
33.9801
33.9981
34.0164
34.0351
34.054
34.0733
34.0929
34.1128
34.1329
34.1532
34.1738
34.1947
34.2157
34.2369
34.2583
34.2799
34.3016
34.3235
34.3455
34.3676
34.3898
34.4121
34.4345
34.4569
34.4794
34.502
34.5246
34.5472
34.5698
34.5925
34.6151
34.6377
34.6603
34.6828
34.7053
34.7277
34.7501
34.7724
34.7946
34.8167
34.8387
34.8606
34.8823
34.9039
34.9254
34.9468
34.968
34.989
35.0099
35.0305
35.051
35.0713
35.0914
35.1113
35.131
35.1505
35.1697
35.1887
35.2075
35.226
35.2442
35.2623
35.28
35.2975
35.3147
35.3316
35.3483
35.3646
35.3807
35.3964
35.4119
35.427
35.4419
35.4564
35.4706
35.4844
35.498
35.5112
35.5241
35.5366
35.5488
35.5606
35.5721
35.5832
35.594
35.6044
35.6145
35.6242
35.6335
35.6425
35.651
35.6593
35.6671
35.6745
35.6816
35.6883
35.6946
35.7005
35.706
35.7112
35.7159
35.7203
35.7243
35.7278
35.731
35.7338
35.7362
35.7382
35.7398
35.741
35.7418
35.7422
47.621
47.6163
47.6066
47.5928
47.5747
47.5531
47.5279
47.4995
47.4679
47.4333
47.3957
47.3552
47.3117
47.2654
47.2161
47.1641
47.1091
47.0514
46.9909
46.9277
46.8618
46.7932
46.722
46.6482
46.5719
46.493
46.4117
46.3281
46.242
46.1537
46.0631
45.9704
45.8755
45.7785
45.6795
45.5785
45.4756
45.3708
45.2642
45.1559
45.0459
44.9343
44.8211
44.7064
44.5903
44.4728
44.354
44.234
44.1127
43.9903
43.8668
43.7424
43.617
43.4906
43.3635
43.2356
43.107
42.9778
42.848
42.7177
42.5869
42.4557
42.3242
42.1924
42.0604
41.9282
41.7958
41.6635
41.5311
41.3988
41.2666
41.1346
41.0028
40.8712
40.74
40.6091
40.4787
40.3487
40.2192
40.0903
39.962
39.8344
39.7074
39.5812
39.4558
39.3311
39.2074
39.0845
38.9626
38.8416
38.7216
38.6027
38.4849
38.3681
38.2525
38.1381
38.0248
37.9128
37.802
37.6925
37.5843
37.4775
37.3719
37.2677
37.165
37.0636
36.9636
36.8651
36.7681
36.6725
36.5784
36.4858
36.3947
36.3051
36.2171
36.1306
36.0456
35.9622
35.8804
35.8001
35.7214
35.6443
35.5688
35.4948
35.4224
35.3516
35.2824
35.2148
35.1487
35.0843
35.0214
34.96
34.9002
34.842
34.7854
34.7303
34.6767
34.6246
34.5741
34.5251
34.4776
34.4315
34.387
34.3439
34.3023
34.2622
34.2235
34.1862
34.1503
34.1158
34.0827
34.0509
34.0205
33.9915
33.9637
33.9373
33.9122
33.8883
33.8657
33.8444
33.8242
33.8053
33.7876
33.771
33.7556
33.7414
33.7282
33.7162
33.7052
33.6954
33.6865
33.6787
33.6719
33.6661
33.6613
33.6575
33.6545
33.6525
33.6514
33.6512
33.6519
33.6533
33.6557
33.6588
33.6627
33.6674
33.6729
33.6791
33.686
33.6936
33.7019
33.7108
33.7204
33.7307
33.7415
33.753
33.765
33.7776
33.7907
33.8043
33.8185
33.8332
33.8483
33.8639
33.8799
33.8964
33.9133
33.9305
33.9482
33.9662
33.9846
34.0033
34.0223
34.0417
34.0613
34.0812
34.1013
34.1217
34.1424
34.1632
34.1843
34.2056
34.227
34.2486
34.2704
34.2922
34.3143
34.3364
34.3587
34.381
34.4034
34.4259
34.4484
34.471
34.4936
34.5163
34.5389
34.5616
34.5843
34.6069
34.6295
34.6521
34.6746
34.697
34.7194
34.7417
34.7639
34.7861
34.8081
34.83
34.8518
34.8734
34.8949
34.9163
34.9375
34.9585
34.9794
35.0001
35.0206
35.0409
35.061
35.081
35.1007
35.1201
35.1394
35.1584
35.1772
35.1957
35.214
35.232
35.2498
35.2673
35.2845
35.3014
35.3181
35.3344
35.3505
35.3663
35.3817
35.3969
35.4117
35.4262
35.4405
35.4543
35.4679
35.4811
35.494
35.5065
35.5187
35.5305
35.542
35.5532
35.564
35.5744
35.5845
35.5942
35.6035
35.6124
35.621
35.6292
35.6371
35.6445
35.6516
35.6583
35.6646
35.6705
35.676
35.6812
35.6859
35.6903
35.6943
35.6978
35.701
35.7038
35.7062
35.7082
35.7098
35.711
35.7118
35.7122
47.5637
47.559
47.5493
47.5353
47.5171
47.4953
47.4699
47.4412
47.4093
47.3744
47.3365
47.2957
47.2519
47.2053
47.1559
47.1036
47.0484
46.9906
46.9299
46.8665
46.8005
46.7318
46.6604
46.5865
46.5101
46.4312
46.3498
46.266
46.1799
46.0915
46.0009
45.908
45.8131
45.716
45.6169
45.5159
45.4129
45.3081
45.2015
45.0931
44.9831
44.8714
44.7582
44.6435
44.5274
44.4098
44.291
44.1709
44.0496
43.9272
43.8037
43.6792
43.5538
43.4275
43.3003
43.1724
43.0438
42.9146
42.7848
42.6544
42.5237
42.3925
42.2609
42.1291
41.9971
41.8649
41.7326
41.6003
41.4679
41.3356
41.2034
41.0714
40.9396
40.8081
40.6769
40.5461
40.4157
40.2857
40.1563
40.0274
39.8991
39.7715
39.6446
39.5184
39.3931
39.2685
39.1448
39.0219
38.9001
38.7791
38.6592
38.5404
38.4226
38.3059
38.1904
38.076
37.9628
37.8509
37.7402
37.6307
37.5226
37.4158
37.3103
37.2063
37.1036
37.0023
36.9024
36.804
36.707
36.6115
36.5175
36.425
36.3339
36.2445
36.1565
36.0701
35.9853
35.902
35.8202
35.74
35.6614
35.5844
35.509
35.4351
35.3628
35.2922
35.223
35.1555
35.0896
35.0252
34.9624
34.9011
34.8415
34.7834
34.7268
34.6718
34.6183
34.5663
34.5159
34.467
34.4196
34.3737
34.3292
34.2863
34.2448
34.2047
34.1661
34.1289
34.0931
34.0587
34.0257
33.9941
33.9638
33.9348
33.9072
33.8808
33.8558
33.8321
33.8095
33.7883
33.7682
33.7494
33.7318
33.7153
33.7
33.6858
33.6728
33.6608
33.65
33.6402
33.6314
33.6237
33.617
33.6113
33.6065
33.6028
33.5999
33.598
33.597
33.5968
33.5975
33.5991
33.6015
33.6047
33.6087
33.6135
33.619
33.6253
33.6322
33.6399
33.6483
33.6573
33.667
33.6773
33.6882
33.6997
33.7117
33.7244
33.7376
33.7513
33.7655
33.7802
33.7954
33.811
33.8271
33.8436
33.8606
33.8779
33.8956
33.9137
33.9321
33.9508
33.9699
33.9893
34.0089
34.0289
34.0491
34.0695
34.0902
34.1111
34.1322
34.1535
34.175
34.1966
34.2184
34.2403
34.2624
34.2845
34.3068
34.3292
34.3516
34.3741
34.3967
34.4193
34.442
34.4646
34.4873
34.51
34.5327
34.5553
34.5779
34.6005
34.6231
34.6455
34.6679
34.6903
34.7125
34.7346
34.7567
34.7786
34.8004
34.8221
34.8436
34.865
34.8862
34.9072
34.9281
34.9488
34.9694
34.9897
35.0098
35.0297
35.0494
35.0689
35.0882
35.1072
35.126
35.1445
35.1628
35.1809
35.1986
35.2161
35.2333
35.2503
35.2669
35.2833
35.2994
35.3152
35.3306
35.3458
35.3606
35.3752
35.3894
35.4033
35.4168
35.43
35.4429
35.4555
35.4677
35.4795
35.491
35.5021
35.5129
35.5234
35.5334
35.5431
35.5524
35.5614
35.57
35.5782
35.586
35.5935
35.6006
35.6073
35.6136
35.6195
35.625
35.6302
35.6349
35.6393
35.6433
35.6468
35.65
35.6528
35.6552
35.6572
35.6588
35.66
35.6608
35.6612
47.5259
47.5212
47.5117
47.498
47.48
47.4584
47.4331
47.4045
47.3727
47.3378
47.2999
47.259
47.2151
47.1684
47.1187
47.0663
47.011
46.953
46.8922
46.8286
46.7624
46.6935
46.622
46.548
46.4714
46.3923
46.3108
46.2269
46.1406
46.0521
45.9613
45.8683
45.7732
45.676
45.5768
45.4756
45.3725
45.2676
45.1609
45.0524
44.9422
44.8304
44.7171
44.6022
44.486
44.3683
44.2494
44.1292
44.0077
43.8852
43.7616
43.637
43.5115
43.385
43.2578
43.1298
43.0011
42.8717
42.7418
42.6114
42.4805
42.3492
42.2176
42.0857
41.9536
41.8213
41.6889
41.5565
41.4241
41.2917
41.1595
41.0274
40.8955
40.7639
40.6327
40.5018
40.3713
40.2413
40.1118
39.9829
39.8546
39.7269
39.6
39.4737
39.3483
39.2237
39.1
38.9771
38.8552
38.7343
38.6144
38.4955
38.3777
38.261
38.1454
38.0311
37.9179
37.8059
37.6952
37.5858
37.4777
37.3709
37.2654
37.1614
37.0587
36.9574
36.8576
36.7591
36.6622
36.5667
36.4727
36.3803
36.2893
36.1999
36.112
36.0256
35.9408
35.8575
35.7758
35.6957
35.6172
35.5402
35.4648
35.391
35.3188
35.2482
35.1791
35.1117
35.0458
34.9815
34.9187
34.8576
34.798
34.7399
34.6834
34.6285
34.5751
34.5232
34.4729
34.4241
34.3767
34.3309
34.2865
34.2437
34.2022
34.1623
34.1237
34.0866
34.0509
34.0166
33.9837
33.9521
33.9219
33.8931
33.8655
33.8393
33.8143
33.7907
33.7683
33.7471
33.7271
33.7084
33.6908
33.6745
33.6593
33.6452
33.6322
33.6204
33.6096
33.5999
33.5912
33.5836
33.577
33.5713
33.5667
33.563
33.5602
33.5584
33.5574
33.5574
33.5582
33.5599
33.5623
33.5656
33.5697
33.5745
33.5801
33.5865
33.5935
33.6013
33.6097
33.6188
33.6286
33.639
33.6499
33.6615
33.6737
33.6864
33.6996
33.7134
33.7277
33.7425
33.7577
33.7735
33.7896
33.8062
33.8232
33.8406
33.8583
33.8765
33.8949
33.9138
33.9329
33.9523
33.972
33.992
34.0123
34.0328
34.0535
34.0745
34.0956
34.117
34.1385
34.1602
34.182
34.204
34.2261
34.2483
34.2706
34.2931
34.3156
34.3381
34.3607
34.3834
34.4061
34.4288
34.4515
34.4742
34.4969
34.5196
34.5423
34.5649
34.5875
34.61
34.6324
34.6548
34.6771
34.6992
34.7213
34.7432
34.7651
34.7868
34.8083
34.8297
34.851
34.8721
34.893
34.9137
34.9343
34.9546
34.9748
34.9947
35.0144
35.034
35.0532
35.0723
35.0911
35.1096
35.128
35.146
35.1638
35.1813
35.1985
35.2155
35.2322
35.2486
35.2647
35.2804
35.2959
35.3111
35.326
35.3405
35.3547
35.3686
35.3822
35.3954
35.4083
35.4209
35.4331
35.4449
35.4565
35.4676
35.4784
35.4888
35.4989
35.5086
35.518
35.5269
35.5355
35.5437
35.5516
35.559
35.5661
35.5728
35.5791
35.5851
35.5906
35.5957
35.6005
35.6049
35.6088
35.6124
35.6156
35.6184
35.6208
35.6228
35.6244
35.6256
35.6264
35.6268
47.4721
47.4675
47.458
47.4443
47.4264
47.4047
47.3793
47.3506
47.3187
47.2836
47.2454
47.2043
47.1602
47.1132
47.0634
47.0107
46.9553
46.897
46.836
46.7723
46.7059
46.6368
46.5652
46.491
46.4142
46.335
46.2533
46.1693
46.0829
45.9942
45.9033
45.8102
45.715
45.6177
45.5184
45.4171
45.3139
45.2088
45.1019
44.9933
44.8831
44.7712
44.6577
44.5428
44.4264
44.3087
44.1896
44.0693
43.9478
43.8252
43.7015
43.5768
43.4512
43.3247
43.1973
43.0693
42.9405
42.8111
42.6811
42.5506
42.4196
42.2883
42.1566
42.0247
41.8925
41.7602
41.6277
41.4952
41.3628
41.2304
41.0981
40.9659
40.834
40.7024
40.5711
40.4402
40.3097
40.1797
40.0502
39.9212
39.7929
39.6653
39.5383
39.4121
39.2866
39.162
39.0383
38.9155
38.7936
38.6726
38.5527
38.4339
38.3161
38.1994
38.0839
37.9695
37.8564
37.7445
37.6338
37.5244
37.4164
37.3096
37.2042
37.1002
36.9976
36.8963
36.7965
36.6982
36.6013
36.5059
36.412
36.3196
36.2287
36.1393
36.0515
35.9652
35.8805
35.7973
35.7157
35.6357
35.5572
35.4803
35.405
35.3313
35.2592
35.1887
35.1197
35.0523
34.9865
34.9223
34.8597
34.7986
34.7391
34.6812
34.6248
34.57
34.5167
34.4649
34.4147
34.366
34.3187
34.273
34.2288
34.186
34.1447
34.1048
34.0664
34.0294
33.9938
33.9596
33.9268
33.8954
33.8653
33.8365
33.8091
33.783
33.7581
33.7346
33.7123
33.6912
33.6714
33.6527
33.6353
33.619
33.6039
33.5899
33.5771
33.5653
33.5547
33.5451
33.5365
33.529
33.5225
33.5169
33.5124
33.5088
33.5061
33.5044
33.5036
33.5036
33.5045
33.5063
33.5088
33.5122
33.5164
33.5213
33.527
33.5334
33.5406
33.5484
33.557
33.5661
33.576
33.5864
33.5975
33.6092
33.6214
33.6342
33.6475
33.6614
33.6757
33.6906
33.7059
33.7217
33.738
33.7546
33.7717
33.7891
33.807
33.8252
33.8437
33.8626
33.8818
33.9013
33.9211
33.9411
33.9614
33.982
34.0028
34.0238
34.045
34.0664
34.088
34.1097
34.1316
34.1536
34.1758
34.1981
34.2204
34.2429
34.2654
34.288
34.3107
34.3334
34.3561
34.3789
34.4016
34.4244
34.4471
34.4699
34.4926
34.5152
34.5378
34.5604
34.5829
34.6053
34.6276
34.6498
34.6719
34.6938
34.7157
34.7374
34.759
34.7804
34.8017
34.8228
34.8438
34.8645
34.8851
34.9055
34.9257
34.9456
34.9654
34.9849
35.0042
35.0233
35.0421
35.0607
35.079
35.0971
35.1149
35.1324
35.1497
35.1666
35.1833
35.1997
35.2158
35.2316
35.2471
35.2623
35.2772
35.2918
35.306
35.3199
35.3335
35.3467
35.3596
35.3722
35.3844
35.3963
35.4078
35.419
35.4298
35.4402
35.4503
35.46
35.4693
35.4783
35.4869
35.4951
35.503
35.5105
35.5175
35.5242
35.5306
35.5365
35.542
35.5472
35.5519
35.5563
35.5603
35.5639
35.5671
35.5698
35.5722
35.5742
35.5758
35.577
35.5778
35.5782
47.4319
47.4273
47.418
47.4044
47.3867
47.3652
47.3399
47.3113
47.2794
47.2443
47.2061
47.1649
47.1207
47.0736
47.0236
46.9708
46.9151
46.8567
46.7955
46.7316
46.665
46.5958
46.5239
46.4495
46.3726
46.2932
46.2113
46.1271
46.0405
45.9517
45.8606
45.7673
45.6719
45.5744
45.4749
45.3734
45.27
45.1648
45.0578
44.949
44.8385
44.7265
44.6129
44.4978
44.3812
44.2633
44.1441
44.0236
43.902
43.7792
43.6553
43.5305
43.4047
43.278
43.1506
43.0223
42.8934
42.7638
42.6337
42.5031
42.372
42.2405
42.1087
41.9766
41.8443
41.7119
41.5793
41.4467
41.3141
41.1816
41.0492
40.9169
40.7849
40.6532
40.5218
40.3908
40.2602
40.1301
40.0005
39.8715
39.7431
39.6154
39.4883
39.3621
39.2366
39.1119
38.9881
38.8652
38.7433
38.6223
38.5024
38.3835
38.2657
38.149
38.0334
37.919
37.8059
37.6939
37.5833
37.4739
37.3658
37.259
37.1536
37.0496
36.947
36.8458
36.746
36.6477
36.5508
36.4554
36.3616
36.2692
36.1783
36.089
36.0012
35.915
35.8303
35.7471
35.6656
35.5856
35.5072
35.4304
35.3552
35.2815
35.2095
35.139
35.0701
35.0028
34.9371
34.873
34.8104
34.7494
34.69
34.6322
34.5759
34.5211
34.4679
34.4162
34.3661
34.3175
34.2703
34.2247
34.1806
34.1379
34.0967
34.0569
34.0186
33.9817
33.9462
33.9121
33.8794
33.8481
33.8181
33.7895
33.7621
33.7361
33.7114
33.6879
33.6658
33.6448
33.6251
33.6066
33.5892
33.5731
33.5581
33.5442
33.5315
33.5198
33.5093
33.4998
33.4913
33.4839
33.4775
33.4721
33.4677
33.4642
33.4616
33.46
33.4593
33.4594
33.4604
33.4623
33.465
33.4684
33.4727
33.4778
33.4836
33.4901
33.4973
33.5053
33.5139
33.5232
33.5331
33.5437
33.5548
33.5666
33.5789
33.5918
33.6052
33.6192
33.6336
33.6486
33.664
33.6799
33.6962
33.7129
33.7301
33.7476
33.7655
33.7838
33.8024
33.8214
33.8407
33.8603
33.8801
33.9002
33.9206
33.9413
33.9621
33.9832
34.0045
34.026
34.0476
34.0694
34.0914
34.1135
34.1357
34.158
34.1804
34.203
34.2256
34.2482
34.2709
34.2937
34.3165
34.3393
34.3621
34.3849
34.4077
34.4305
34.4533
34.476
34.4986
34.5212
34.5437
34.5662
34.5885
34.6108
34.6329
34.655
34.6769
34.6986
34.7202
34.7417
34.763
34.7842
34.8052
34.826
34.8466
34.867
34.8872
34.9072
34.927
34.9465
34.9659
34.985
35.0038
35.0224
35.0408
35.0589
35.0767
35.0943
35.1115
35.1285
35.1453
35.1617
35.1778
35.1936
35.2092
35.2244
35.2393
35.2538
35.2681
35.282
35.2956
35.3089
35.3218
35.3344
35.3466
35.3585
35.37
35.3812
35.392
35.4025
35.4126
35.4223
35.4317
35.4406
35.4493
35.4575
35.4653
35.4728
35.4799
35.4866
35.4929
35.4989
35.5044
35.5096
35.5144
35.5187
35.5227
35.5263
35.5295
35.5323
35.5347
35.5367
35.5383
35.5395
35.5403
35.5407
47.3809
47.3764
47.3672
47.3537
47.336
47.3145
47.2893
47.2606
47.2286
47.1933
47.155
47.1136
47.0692
47.0219
46.9717
46.9187
46.8628
46.8042
46.7428
46.6787
46.6119
46.5424
46.4704
46.3958
46.3186
46.239
46.157
46.0726
45.9858
45.8968
45.8055
45.712
45.6165
45.5188
45.4191
45.3175
45.2139
45.1085
45.0013
44.8923
44.7817
44.6695
44.5557
44.4405
44.3238
44.2057
44.0863
43.9657
43.8439
43.7209
43.5969
43.4719
43.346
43.2192
43.0916
42.9632
42.8341
42.7044
42.5742
42.4434
42.3122
42.1806
42.0487
41.9165
41.7841
41.6515
41.5188
41.3861
41.2534
41.1208
40.9883
40.856
40.7239
40.5921
40.4606
40.3295
40.1989
40.0687
39.939
39.8099
39.6815
39.5537
39.4266
39.3003
39.1747
39.05
38.9262
38.8033
38.6813
38.5603
38.4403
38.3214
38.2036
38.0869
37.9713
37.857
37.7438
37.6319
37.5212
37.4118
37.3038
37.197
37.0917
36.9877
36.8851
36.7839
36.6842
36.5859
36.489
36.3937
36.2999
36.2076
36.1167
36.0275
35.9397
35.8536
35.769
35.6859
35.6044
35.5245
35.4462
35.3695
35.2943
35.2207
35.1488
35.0784
35.0096
34.9424
34.8768
34.8128
34.7503
34.6894
34.6301
34.5724
34.5162
34.4615
34.4084
34.3569
34.3069
34.2583
34.2113
34.1658
34.1218
34.0792
34.0382
33.9985
33.9603
33.9235
33.8882
33.8542
33.8216
33.7904
33.7606
33.732
33.7048
33.679
33.6544
33.631
33.609
33.5881
33.5685
33.5501
33.5329
33.5169
33.502
33.4883
33.4757
33.4642
33.4537
33.4444
33.4361