/*--------------------------------*- C++ -*----------------------------------*\
| =========                 |                                                 |
| \\      /  F ield         | OpenFOAM: The Open Source CFD Toolbox           |
|  \\    /   O peration     | Version:  2212                                  |
|   \\  /    A nd           | Website:  www.openfoam.com                      |
|    \\/     M anipulation  |                                                 |
\*---------------------------------------------------------------------------*/
FoamFile
{
    version     2.0;
    format      ascii;
    arch        "LSB;label=32;scalar=64";
    class       surfaceScalarField;
    location    "700";
    object      phi;
}
// * * * * * * * * * * * * * * * * * * * * * * * * * * * * * * * * * * * * * //

dimensions      [1 0 -1 0 0 0 0];

oriented        oriented;

internalField   nonuniform List<scalar> 
408640
(
-1188.4
1188.97
-2342.34
1153.97
-3429.92
1087.62
-4433.44
1003.56
-5350.23
916.851
-6189.14
838.975
-6965.89
776.829
-7698.09
732.271
-8401.76
703.758
-9089.53
687.848
-9770.17
680.729
-10449.1
679.019
-11129.2
680.178
-11811.6
682.495
-12496.5
684.955
-13183.4
687.019
-13871.8
688.459
-14560.9
689.216
-15250.1
689.318
-15938.9
688.825
-16626.6
687.807
-17312.9
686.328
-17997.2
684.446
-18679.3
682.208
-19358.9
679.653
-20035.7
676.814
-20709.3
673.716
-21379.6
670.382
-22046.3
666.83
-22709.3
663.076
-23368.4
659.132
-24023.3
655.011
-24674
650.722
-25320.2
646.273
-25961.7
641.672
-26598.6
636.927
-27230.6
632.043
-27857.5
627.026
-28479.3
621.881
-29095.9
616.613
-29707
611.226
-30312.7
605.725
-30912.7
600.113
-31507
594.393
-32095.5
588.57
-32678.1
582.648
-33254.6
576.628
-33825.1
570.515
-34389.3
564.311
-34947.3
558.02
-35498.8
551.644
-36044
545.186
-36582.5
538.65
-37114.5
532.038
-37639.8
525.352
-38158.3
518.595
-38670
511.771
-39174.8
504.881
-39672.7
497.929
-40163.5
490.916
-40647.3
483.847
-41124
476.722
-41593.5
469.545
-42055.7
462.317
-42510.7
455.043
-42958.4
447.724
-43398.7
440.362
-43831.5
432.96
-44257
425.521
-44675
418.046
-45085.5
410.539
-45488.4
403.001
-45883.8
395.436
-46271.6
387.844
-46651.7
380.229
-47024.3
372.593
-47389.1
364.938
-47746.3
357.267
-48095.9
349.581
-48437.7
341.883
-48771.8
334.174
-49098.2
326.458
-49416.9
318.736
-49727.8
311.011
-50031.1
303.284
-50326.6
295.557
-50614.4
287.833
-50894.4
280.113
-51166.8
272.4
-51431.4
264.695
-51688.4
257.001
-51937.6
249.318
-52179.2
241.65
-52413.2
233.997
-52639.5
226.362
-52858.2
218.746
-53069.3
211.151
-53272.8
203.579
-53468.8
196.031
-53657.3
188.509
-53838.2
181.015
-54011.7
173.55
-54177.8
166.116
-54336.5
158.713
-54487.8
151.344
-54631.7
144.011
-54768.4
136.713
-54897.8
129.453
-55020
122.232
-55135
115.052
-55242.9
107.912
-55343.7
100.816
-55437.4
93.7633
-55524.1
86.7556
-55603.9
79.7939
-55676.8
72.8793
-55742.7
66.0129
-55801.9
59.1955
-55854.3
52.4282
-55900
45.7119
-55939
39.0473
-55971.4
32.4355
-55997.3
25.8771
-56016.6
19.373
-56029.5
12.9239
-56036.1
6.53049
-56036.2
0.193454
-56030.1
-6.08658
-56017.8
-12.309
-55999.3
-18.4732
-55974.7
-24.5787
-55944.1
-30.625
-55907.5
-36.6116
-55864.9
-42.538
-55816.5
-48.4039
-55762.3
-54.2088
-55702.4
-59.9524
-55636.7
-65.6344
-55565.5
-71.2544
-55488.7
-76.8123
-55406.4
-82.3078
-55318.7
-87.7407
-55225.6
-93.1107
-55127.2
-98.4178
-55023.5
-103.662
-54914.7
-108.843
-54800.8
-113.96
-54681.8
-119.015
-54557.8
-124.005
-54428.9
-128.933
-54295.1
-133.797
-54156.6
-138.598
-54013.3
-143.336
-53865.3
-148.011
-53712.7
-152.622
-53555.6
-157.171
-53394
-161.657
-53227.9
-166.081
-53057.6
-170.442
-52882.9
-174.741
-52703.9
-178.978
-52520.9
-183.153
-52333.7
-187.267
-52142.4
-191.319
-51947.2
-195.311
-51748
-199.243
-51545
-203.114
-51338.1
-206.925
-51127.5
-210.676
-50913.2
-214.369
-50695.3
-218.002
-50473.8
-221.578
-50248.8
-225.095
-50020.4
-228.555
-49788.5
-231.957
-49553.3
-235.303
-49314.9
-238.593
-49073.1
-241.826
-48828.3
-245.005
-48580.2
-248.128
-48329.2
-251.197
-48075.1
-254.213
-47818
-257.175
-47558.1
-260.083
-47295.3
-262.94
-47029.7
-265.745
-46761.3
-268.498
-46490.3
-271.201
-46216.6
-273.853
-45940.3
-276.456
-45661.4
-279.009
-45380.1
-281.514
-45096.3
-283.971
-44810.1
-286.38
-44521.5
-288.742
-44230.6
-291.058
-43937.5
-293.328
-43642.1
-295.552
-43344.6
-297.732
-43044.9
-299.868
-42743.2
-301.961
-42439.3
-304.01
-42133.5
-306.017
-41825.8
-307.982
-41516.1
-309.905
-41204.5
-311.789
-40891.1
-313.631
-40575.9
-315.435
-40258.9
-317.199
-39940.2
-318.925
-39619.9
-320.613
-39297.8
-322.264
-38974.2
-323.878
-38649
-325.456
-38322.3
-326.998
-37994
-328.506
-37664.3
-329.979
-37333.2
-331.417
-37000.6
-332.823
-36666.7
-334.196
-36331.4
-335.536
-35994.9
-336.845
-35657
-338.122
-35318
-339.369
-34977.7
-340.585
-34636.2
-341.772
-34293.6
-342.93
-33949.8
-344.06
-33605
-345.161
-33259.1
-346.234
-32912.1
-347.281
-32564.1
-348.301
-32215.2
-349.295
-31865.2
-350.264
-31514.3
-351.207
-31162.6
-352.126
-30809.9
-353.021
-30456.3
-353.892
-30102
-354.739
-29746.7
-355.565
-29390.7
-356.368
-29033.9
-357.149
-28676.4
-357.908
-28318.1
-358.647
-27959.1
-359.365
-27599.4
-360.064
-27239.1
-360.742
-26878.1
-361.402
-26516.4
-362.042
-26154.1
-362.665
-25791.3
-363.269
-25427.8
-363.855
-25063.8
-364.425
-24699.2
-364.977
-24334.1
-365.514
-23968.5
-366.034
-23602.3
-366.538
-23235.7
-367.027
-22868.6
-367.501
-22501.1
-367.961
-22133.1
-368.406
-21764.7
-368.837
-21395.9
-369.255
-21026.7
-369.659
-20657.1
-370.051
-20287.1
-370.429
-19916.7
-370.796
-19546
-371.15
-19175
-371.493
-18803.6
-371.824
-18431.9
-372.144
-18059.9
-372.453
-17687.6
-372.752
-17315
-373.04
-16942.2
-373.318
-16569.1
-373.586
-16195.7
-373.845
-15822.1
-374.094
-15448.2
-374.334
-15074.1
-374.566
-14699.8
-374.789
-14325.3
-375.003
-13950.6
-375.209
-13575.6
-375.408
-13200.5
-375.598
-12825.2
-375.781
-12449.8
-375.957
-12074.1
-376.125
-11698.3
-376.287
-11322.4
-376.441
-10946.3
-376.589
-10570.1
-376.731
-10193.7
-376.866
-9817.22
-376.995
-9440.61
-377.118
-9063.88
-377.235
-8687.04
-377.347
-8310.09
-377.453
-7933.05
-377.554
-7555.91
-377.65
-7178.68
-377.74
-6801.36
-377.826
-6423.97
-377.907
-6046.5
-377.983
-5668.96
-378.055
-5291.35
-378.123
-4913.68
-378.187
-4535.96
-378.247
-4158.17
-378.303
-3780.33
-378.355
-3402.45
-378.403
-3024.52
-378.448
-2646.56
-378.489
-2268.55
-378.526
-1890.51
-378.558
-1512.45
-378.587
-1134.36
-378.611
-756.25
-378.63
-378.128
-378.644
-378.65
-1168.28
2357.28
-2304.44
2290.15
-3379.27
2162.49
-4376.07
2000.41
-5291.62
1832.46
-6133.46
1680.88
-6915.68
1559.13
-7654.43
1471.1
-8364.68
1414.09
-9058.38
1381.63
-9744.02
1366.46
-10427
1362.04
-11110.1
1363.43
-11794.8
1367.28
-12481.4
1371.57
-13169.5
1375.2
-13858.6
1377.71
-14548.3
1378.93
-15237.8
1378.92
-15926.6
1377.77
-16614.3
1375.61
-17300.5
1372.55
-17984.7
1368.71
-18666.6
1364.18
-19345.8
1359.02
-20022.3
1353.3
-20695.5
1347.08
-21365.5
1340.38
-22031.8
1333.26
-22694.4
1325.73
-23353
1317.83
-24007.5
1309.58
-24657.7
1300.99
-25303.4
1292.08
-25944.5
1282.88
-26580.9
1273.38
-27212.4
1263.61
-27838.9
1253.57
-28460.2
1243.28
-29076.2
1232.74
-29686.9
1221.96
-30292.1
1210.96
-30891.6
1199.73
-31485.4
1188.29
-32073.4
1176.65
-32655.5
1164.8
-33231.6
1152.76
-33801.5
1140.54
-34365.3
1128.13
-34922.7
1115.55
-35473.8
1102.8
-36018.4
1089.88
-36556.5
1076.81
-37088
1063.59
-37612.8
1050.22
-38130.8
1036.71
-38642.1
1023.06
-39146.4
1009.28
-39643.8
995.381
-40134.2
981.359
-40617.5
967.222
-41093.7
952.975
-41562.7
938.623
-42024.5
924.172
-42479
909.626
-42926.2
894.991
-43366
880.271
-43798.5
865.47
-44223.5
850.595
-44641
835.65
-45051.1
820.639
-45453.6
805.568
-45848.5
790.44
-46235.9
775.261
-46615.6
760.035
-46987.7
744.767
-47352.2
729.462
-47709
714.123
-48058.1
698.756
-48399.5
683.364
-48733.3
667.952
-49059.3
652.525
-49377.6
637.086
-49688.1
621.64
-49991
606.191
-50286.1
590.742
-50573.5
575.299
-50853.2
559.865
-51125.2
544.444
-51389.5
529.039
-51646.1
513.655
-51895
498.295
-52136.3
482.964
-52369.9
467.664
-52595.9
452.399
-52814.3
437.173
-53025.1
421.989
-53228.3
406.851
-53424
391.761
-53612.1
376.723
-53792.8
361.741
-53966
346.816
-54131.8
331.953
-54290.2
317.155
-54441.3
302.423
-54585
287.761
-54721.4
273.172
-54850.6
258.659
-54972.5
244.223
-55087.3
229.868
-55194.9
215.596
-55295.5
201.409
-55389
187.31
-55475.5
173.301
-55555.1
159.384
-55627.7
145.561
-55693.5
131.835
-55752.5
118.206
-55804.7
104.678
-55850.2
91.2515
-55889.1
77.9288
-55921.4
64.7115
-55947.1
51.6011
-55966.3
38.5993
-55979
25.7075
-55985.4
12.927
-55985.5
0.259318
-55979.2
-12.2944
-55966.8
-24.7328
-55948.2
-37.0549
-55923.5
-49.2596
-55892.8
-61.3458
-55856.1
-73.3126
-55813.5
-85.1591
-55765
-96.8845
-55710.7
-108.488
-55650.7
-119.969
-55585
-131.327
-55513.7
-142.561
-55436.8
-153.67
-55354.5
-164.655
-55266.7
-175.515
-55173.6
-186.249
-55075.2
-196.857
-54971.5
-207.339
-54862.7
-217.694
-54748.8
-227.923
-54629.8
-238.026
-54505.8
-248.002
-54376.9
-257.851
-54243.2
-267.574
-54104.6
-277.17
-53961.4
-286.639
-53813.4
-295.983
-53660.9
-305.2
-53503.8
-314.292
-53342.3
-323.259
-53176.3
-332.1
-53006
-340.816
-52831.4
-349.409
-52652.5
-357.877
-52469.5
-366.222
-52282.4
-374.445
-52091.2
-382.545
-51896.1
-390.523
-51697
-398.38
-51494.1
-406.117
-51287.4
-413.734
-51076.9
-421.232
-50862.8
-428.612
-50645
-435.875
-50423.6
-443.02
-50198.8
-450.05
-49970.5
-456.964
-49738.7
-463.764
-49503.7
-470.451
-49265.4
-477.026
-49023.8
-483.488
-48779.1
-489.84
-48531.3
-496.083
-48280.4
-502.217
-48026.5
-508.243
-47769.6
-514.162
-47509.9
-519.975
-47247.3
-525.684
-46981.9
-531.289
-46713.7
-536.792
-46442.9
-542.193
-46169.4
-547.493
-45893.3
-552.694
-45614.7
-557.797
-45333.5
-562.803
-45050
-567.712
-44764
-572.527
-44475.7
-577.247
-44185
-581.875
-43892.1
-586.411
-43597
-590.857
-43299.7
-595.213
-43000.3
-599.482
-42698.8
-603.663
-42395.3
-607.758
-42089.7
-611.768
-41782.2
-615.695
-41472.8
-619.539
-41161.5
-623.302
-40848.4
-626.984
-40533.4
-630.588
-40216.8
-634.114
-39898.4
-637.562
-39578.3
-640.936
-39256.5
-644.234
-38933.2
-647.46
-38608.3
-650.613
-38281.9
-653.694
-37953.9
-656.706
-37624.5
-659.649
-37293.7
-662.524
-36961.4
-665.332
-36627.8
-668.075
-36292.9
-670.753
-35956.7
-673.368
-35619.2
-675.92
-35280.4
-678.412
-34940.4
-680.842
-34599.3
-683.214
-34257
-685.527
-33913.6
-687.784
-33569.1
-689.984
-33223.5
-692.129
-32876.9
-694.22
-32529.2
-696.258
-32180.6
-698.244
-31831
-700.179
-31480.5
-702.064
-31129.1
-703.9
-30776.8
-705.687
-30423.6
-707.427
-30069.5
-709.121
-29714.7
-710.77
-29359
-712.374
-29002.6
-713.934
-28645.4
-715.452
-28287.5
-716.928
-27928.9
-718.363
-27569.6
-719.758
-27209.6
-721.113
-26848.9
-722.431
-26487.6
-723.71
-26125.7
-724.953
-25763.2
-726.16
-25400.2
-727.332
-25036.5
-728.47
-24672.3
-729.574
-24307.6
-730.645
-23942.4
-731.684
-23576.6
-732.691
-23210.4
-733.668
-22843.7
-734.615
-22476.6
-735.533
-22109
-736.422
-21740.9
-737.284
-21372.5
-738.118
-21003.7
-738.925
-20634.5
-739.707
-20264.9
-740.464
-19894.9
-741.195
-19524.6
-741.903
-19154
-742.587
-18783
-743.249
-18411.7
-743.888
-18040.1
-744.505
-17668.2
-745.101
-17296
-745.677
-16923.6
-746.232
-16550.9
-746.768
-16177.9
-747.285
-15804.7
-747.783
-15431.2
-748.263
-15057.5
-748.725
-14683.6
-749.17
-14309.5
-749.598
-13935.2
-750.01
-13560.7
-750.406
-13186
-750.786
-12811.1
-751.152
-12436
-751.502
-12060.8
-751.839
-11685.4
-752.161
-11309.9
-752.47
-10934.2
-752.765
-10558.4
-753.048
-10182.5
-753.317
-9806.37
-753.575
-9430.17
-753.821
-9053.86
-754.055
-8677.43
-754.278
-8300.9
-754.49
-7924.27
-754.691
-7547.55
-754.882
-7170.73
-755.063
-6793.84
-755.234
-6416.86
-755.396
-6039.81
-755.549
-5662.69
-755.693
-5285.5
-755.828
-4908.24
-755.955
-4530.93
-756.074
-4153.57
-756.186
-3776.15
-756.29
-3398.68
-756.387
-3021.18
-756.476
-2643.63
-756.557
-2266.04
-756.631
-1888.42
-756.697
-1510.78
-756.754
-1133.1
-756.802
-755.415
-756.84
-377.712
-756.867
-756.883
-1143.17
3500.47
-2256.91
3403.92
-3315.26
3220.89
-4302.97
2988.16
-5216.38
2745.94
-6061.58
2526.15
-6850.67
2348.29
-7597.95
2218.46
-8316.97
2133.19
-9018.77
2083.51
-9711.37
2059.14
-10400
2050.75
-11087.7
2051.18
-11775.8
2055.53
-12465
2060.79
-13155
2065.32
-13845.6
2068.37
-14536.2
2069.67
-15226.4
2069.24
-15915.8
2067.19
-16603.8
2063.71
-17290.1
2058.94
-17974.3
2053.03
-18656.2
2046.11
-19335.4
2038.28
-20011.6
2029.63
-20684.7
2020.22
-21354.3
2010.13
-22020.4
1999.4
-22682.7
1988.08
-23341
1976.2
-23995.1
1963.79
-24644.9
1950.89
-25290.3
1937.51
-25931
1923.68
-26567
1909.43
-27198
1894.76
-27824.1
1879.69
-28445
1864.24
-29060.6
1848.43
-29670.8
1832.26
-30275.5
1815.75
-30874.6
1798.9
-31468
1781.74
-32055.5
1764.27
-32637.1
1746.5
-33212.8
1728.44
-33782.2
1710.1
-34345.5
1691.49
-34902.5
1672.61
-35453.1
1653.49
-35997.3
1634.12
-36534.9
1614.51
-37066
1594.68
-37590.3
1574.62
-38107.9
1554.36
-38618.6
1533.89
-39122.5
1513.23
-39619.4
1492.38
-40109.4
1471.35
-40592.2
1450.14
-41068
1428.78
-41536.5
1407.25
-41997.9
1385.58
-42451.9
1363.76
-42898.7
1341.81
-43338.1
1319.74
-43770.1
1297.54
-44194.7
1275.23
-44611.8
1252.82
-45021.4
1230.31
-45423.5
1207.7
-45818
1185.02
-46204.9
1162.26
-46584.2
1139.42
-46955.9
1116.53
-47320
1093.57
-47676.4
1070.57
-48025.1
1047.52
-48366.1
1024.44
-48699.4
1001.33
-49025
978.197
-49342.9
955.045
-49653.1
931.882
-49955.6
908.715
-50250.4
885.549
-50537.4
862.391
-50816.7
839.246
-51088.3
816.121
-51352.3
793.022
-51608.5
769.953
-51857.1
746.921
-52098
723.931
-52331.3
700.988
-52556.9
678.099
-52775
655.268
-52985.4
632.499
-53188.3
609.799
-53383.7
587.173
-53571.6
564.624
-53751.9
542.159
-53924.9
519.78
-54090.4
497.494
-54248.5
475.305
-54399.2
453.216
-54542.6
431.231
-54678.8
409.357
-54807.7
387.595
-54929.4
365.95
-55043.9
344.426
-55151.3
323.027
-55251.6
301.755
-55344.9
280.615
-55431.1
259.611
-55510.5
238.744
-55582.9
218.019
-55648.5
197.438
-55707.2
177.004
-55759.3
156.721
-55804.6
136.59
-55843.2
116.616
-55875.3
96.7987
-55900.8
77.1423
-55919.8
57.6488
-55932.4
38.3202
-55938.6
19.1588
-55938.5
0.166444
-55932.2
-18.6549
-55919.6
-37.3033
-55900.8
-55.7772
-55876
-74.075
-55845.2
-92.195
-55808.3
-110.136
-55765.6
-127.897
-55717
-145.475
-55662.6
-162.872
-55602.5
-180.084
-55536.7
-197.111
-55465.3
-213.953
-55388.4
-230.608
-55306
-247.076
-55218.2
-263.356
-55125
-279.448
-55026.5
-295.351
-54922.8
-311.065
-54813.9
-326.59
-54699.9
-341.924
-54580.9
-357.069
-54456.9
-372.024
-54328
-386.789
-54194.3
-401.364
-54055.7
-415.75
-53912.4
-429.945
-53764.5
-443.952
-53612
-457.77
-53454.9
-471.399
-53293.4
-484.84
-53127.4
-498.093
-52957.2
-511.16
-52782.6
-524.04
-52603.8
-536.734
-52420.8
-549.243
-52233.8
-561.569
-52042.7
-573.71
-51847.6
-585.67
-51648.6
-597.448
-51445.7
-609.045
-51239.1
-620.463
-51028.7
-631.702
-50814.6
-642.764
-50597
-653.65
-50375.7
-664.36
-50151
-674.897
-49922.8
-685.261
-49691.2
-695.454
-49456.3
-705.477
-49218.1
-715.331
-48976.6
-725.018
-48732.1
-734.539
-48484.4
-743.896
-48233.6
-753.089
-47979.9
-762.121
-47723.2
-770.993
-47463.6
-779.707
-47201.1
-788.263
-46935.9
-796.664
-46667.9
-804.912
-46397.3
-813.006
-46124
-820.951
-45848.1
-828.746
-45569.6
-836.394
-45288.7
-843.896
-45005.3
-851.254
-44719.6
-858.47
-44431.4
-865.545
-44141
-872.48
-43848.3
-879.279
-43553.4
-885.942
-43256.4
-892.47
-42957.2
-898.867
-42655.9
-905.133
-42352.6
-911.27
-42047.3
-917.28
-41740
-923.165
-41430.9
-928.926
-41119.8
-934.565
-40806.9
-940.084
-40492.3
-945.484
-40175.8
-950.768
-39857.7
-955.936
-39537.9
-960.991
-39216.4
-965.934
-38893.4
-970.767
-38568.7
-975.492
-38242.6
-980.11
-37914.9
-984.624
-37585.8
-989.034
-37255.3
-993.342
-36923.3
-997.55
-36590
-1001.66
-36255.4
-1005.67
-35919.4
-1009.59
-35582.2
-1013.42
-35243.8
-1017.15
-34904.1
-1020.79
-34563.3
-1024.34
-34221.3
-1027.81
-33878.2
-1031.19
-33534
-1034.49
-33188.8
-1037.7
-32842.5
-1040.84
-32495.1
-1043.89
-32146.9
-1046.87
-31797.6
-1049.76
-31447.4
-1052.59
-31096.3
-1055.34
-30744.3
-1058.02
-30391.5
-1060.62
-30037.8
-1063.16
-29683.3
-1065.63
-29328
-1068.03
-28971.9
-1070.37
-28615.1
-1072.65
-28257.5
-1074.86
-27899.2
-1077.01
-27540.3
-1079.1
-27180.6
-1081.13
-26820.3
-1083.1
-26459.4
-1085.02
-26097.9
-1086.88
-25735.8
-1088.69
-25373
-1090.44
-25009.8
-1092.15
-24645.9
-1093.8
-24281.6
-1095.41
-23916.7
-1096.96
-23551.3
-1098.47
-23185.5
-1099.93
-22819.2
-1101.35
-22452.4
-1102.73
-22085.2
-1104.06
-21717.5
-1105.35
-21349.5
-1106.6
-20981
-1107.81
-20612.2
-1108.98
-20243
-1110.11
-19873.4
-1111.21
-19503.5
-1112.27
-19133.3
-1113.29
-18762.7
-1114.28
-18391.8
-1115.24
-18020.6
-1116.17
-17649.1
-1117.06
-17277.3
-1117.92
-16905.2
-1118.75
-16532.9
-1119.56
-16160.3
-1120.33
-15787.5
-1121.07
-15414.4
-1121.79
-15041.2
-1122.49
-14667.7
-1123.15
-14293.9
-1123.79
-13920
-1124.41
-13545.9
-1125
-13171.6
-1125.57
-12797.1
-1126.12
-12422.5
-1126.64
-12047.7
-1127.15
-11672.7
-1127.63
-11297.6
-1128.09
-10922.3
-1128.54
-10546.9
-1128.96
-10171.3
-1129.36
-9795.66
-1129.75
-9419.87
-1130.12
-9043.96
-1130.47
-8667.94
-1130.8
-8291.82
-1131.12
-7915.6
-1131.42
-7539.29
-1131.7
-7162.89
-1131.98
-6786.4
-1132.23
-6409.84
-1132.47
-6033.2
-1132.7
-5656.48
-1132.92
-5279.71
-1133.12
-4902.87
-1133.31
-4525.97
-1133.49
-4149.02
-1133.66
-3772.01
-1133.81
-3394.96
-1133.96
-3017.87
-1134.09
-2640.73
-1134.21
-2263.56
-1134.32
-1886.35
-1134.42
-1509.12
-1134.51
-1131.86
-1134.58
-754.587
-1134.64
-377.297
-1134.68
-1134.7
-1110.23
4610.73
-2194.72
4488.43
-3231.53
4257.74
-4207.23
3963.9
-5117.77
3656.54
-5967.37
3375.81
-6765.61
3146.6
-7524.38
2977.31
-8255.31
2864.19
-8968.2
2796.49
-9670.44
2761.47
-10367
2747.44
-11061.1
2745.31
-11754.2
2748.76
-12447.2
2753.85
-13140.2
2758.38
-13833
2761.26
-14525.3
2762.09
-15216.8
2760.82
-15907.1
2757.57
-16595.8
2752.51
-17282.6
2745.83
-17967.2
2737.7
-18649.3
2728.27
-19328.6
2717.67
-20004.9
2706
-20677.9
2693.35
-21347.5
2679.81
-22013.5
2665.43
-22675.6
2650.27
-23333.7
2634.37
-23987.6
2617.79
-24637.2
2600.54
-25282.3
2582.68
-25922.7
2564.21
-26558.4
2545.18
-27189.2
2525.6
-27814.9
2505.49
-28435.5
2484.88
-29050.7
2463.77
-29660.6
2442.2
-30264.9
2420.18
-30863.7
2397.71
-31456.7
2374.82
-32043.9
2351.51
-32625.1
2327.81
-33200.3
2303.73
-33769.4
2279.27
-34332.3
2254.45
-34888.9
2229.28
-35439.1
2203.78
-35982.9
2177.95
-36520.1
2151.81
-37050.7
2125.36
-37574.7
2098.62
-38091.8
2071.6
-38602.2
2044.31
-39105.6
2016.76
-39602.2
1988.96
-40091.7
1960.92
-40574.1
1932.65
-41049.4
1904.16
-41517.6
1875.46
-41978.5
1846.57
-42432.1
1817.48
-42878.5
1788.22
-43317.5
1758.78
-43749
1729.19
-44173.2
1699.45
-44589.9
1669.57
-44999.1
1639.56
-45400.7
1609.43
-45794.8
1579.18
-46181.4
1548.83
-46560.3
1518.39
-46931.6
1487.87
-47295.2
1457.27
-47651.2
1426.61
-47999.5
1395.89
-48340.1
1365.12
-48673
1334.31
-48998.2
1303.47
-49315.7
1272.6
-49625.5
1241.73
-49927.6
1210.84
-50221.9
1179.96
-50508.6
1149.09
-50787.5
1118.24
-51058.8
1087.41
-51322.3
1056.62
-51578.2
1025.87
-51826.4
995.17
-52066.9
964.525
-52299.8
933.943
-52525.1
903.432
-52742.8
872.999
-52952.9
842.65
-53155.4
812.392
-53350.5
782.232
-53538
752.177
-53718
722.232
-53890.6
692.404
-54055.7
662.698
-54213.5
633.122
-54363.9
603.679
-54507
574.377
-54642.9
545.221
-54771.4
516.215
-54892.8
487.366
-55007
458.678
-55114.1
430.155
-55214.1
401.804
-55307.1
373.629
-55393.1
345.633
-55472.1
317.822
-55544.3
290.199
-55609.6
262.769
-55668.1
235.535
-55719.9
208.502
-55764.9
181.673
-55803.3
155.051
-55835.1
128.64
-55860.4
102.443
-55879.2
76.463
-55891.6
50.7032
-55897.6
25.1663
-55897.2
-0.145088
-55890.7
-25.2284
-55877.9
-50.0812
-55858.9
-74.7012
-55833.9
-99.0863
-55802.9
-123.234
-55765.8
-147.144
-55722.9
-170.813
-55674.2
-194.239
-55619.6
-217.422
-55559.3
-240.359
-55493.4
-263.051
-55421.9
-285.494
-55344.8
-307.689
-55262.2
-329.634
-55174.3
-351.329
-55081
-372.773
-54982.4
-393.965
-54878.5
-414.905
-54769.6
-435.592
-54655.5
-456.026
-54536.4
-476.207
-54412.3
-496.135
-54283.3
-515.81
-54149.5
-535.232
-54010.8
-554.4
-53867.5
-573.316
-53719.5
-591.98
-53566.9
-610.391
-53409.8
-628.552
-53248.3
-646.461
-53082.3
-664.121
-52912
-681.531
-52737.4
-698.693
-52558.6
-715.608
-52375.6
-732.275
-52188.5
-748.698
-51997.4
-764.875
-51802.4
-780.81
-51603.4
-796.503
-51400.5
-811.955
-51193.9
-827.167
-50983.6
-842.142
-50769.5
-856.88
-50551.9
-871.384
-50330.7
-885.654
-50106
-899.692
-49877.8
-913.501
-49646.3
-927.081
-49411.5
-940.434
-49173.3
-953.563
-48932
-966.468
-48687.5
-979.153
-48439.9
-991.618
-48189.3
-1003.87
-47935.6
-1015.9
-47679
-1027.72
-47419.5
-1039.33
-47157.2
-1050.73
-46892.1
-1061.92
-46624.2
-1072.9
-46353.7
-1083.69
-46080.5
-1094.27
-45804.8
-1104.66
-45526.5
-1114.84
-45245.7
-1124.84
-44962.5
-1134.64
-44676.9
-1144.25
-44388.9
-1153.68
-44098.7
-1162.91
-43806.2
-1171.97
-43511.5
-1180.85
-43214.6
-1189.54
-42915.6
-1198.06
-42614.5
-1206.41
-42311.4
-1214.59
-42006.3
-1222.59
-41699.2
-1230.43
-41390.3
-1238.1
-41079.4
-1245.61
-40766.8
-1252.96
-40452.3
-1260.16
-40136.1
-1267.19
-39818.2
-1274.08
-39498.7
-1280.81
-39177.4
-1287.4
-38854.6
-1293.83
-38530.2
-1300.13
-38204.3
-1306.28
-37876.9
-1312.29
-37548.1
-1318.16
-37217.8
-1323.9
-36886.1
-1329.5
-36553
-1334.98
-36218.7
-1340.32
-35883
-1345.54
-35546.1
-1350.63
-35207.9
-1355.6
-34868.5
-1360.45
-34528
-1365.19
-34186.3
-1369.8
-33843.5
-1374.31
-33499.6
-1378.7
-33154.6
-1382.98
-32808.7
-1387.15
-32461.7
-1391.22
-32113.7
-1395.18
-31764.7
-1399.04
-31414.8
-1402.8
-31064.1
-1406.46
-30712.4
-1410.03
-30359.9
-1413.5
-30006.5
-1416.88
-29652.3
-1420.17
-29297.3
-1423.37
-28941.6
-1426.48
-28585.1
-1429.51
-28227.9
-1432.45
-27869.9
-1435.31
-27511.3
-1438.09
-27152
-1440.8
-26792.1
-1443.43
-26431.5
-1445.98
-26070.3
-1448.46
-25708.5
-1450.86
-25346.2
-1453.2
-24983.2
-1455.47
-24619.8
-1457.67
-24255.8
-1459.81
-23891.3
-1461.88
-23526.3
-1463.89
-23160.8
-1465.84
-22794.8
-1467.72
-22428.4
-1469.55
-22061.6
-1471.33
-21694.3
-1473.05
-21326.6
-1474.71
-20958.6
-1476.32
-20590.1
-1477.88
-20221.3
-1479.38
-19852.1
-1480.84
-19482.5
-1482.25
-19112.7
-1483.62
-18742.5
-1484.94
-18371.9
-1486.21
-18001.1
-1487.44
-17630
-1488.63
-17258.6
-1489.78
-16886.9
-1490.88
-16515
-1491.95
-16142.8
-1492.98
-15770.4
-1493.97
-15397.7
-1494.93
-15024.8
-1495.85
-14651.7
-1496.74
-14278.4
-1497.59
-13904.9
-1498.41
-13531.2
-1499.2
-13157.3
-1499.96
-12783.2
-1500.69
-12408.9
-1501.38
-12034.5
-1502.05
-11660
-1502.7
-11285.2
-1503.31
-10910.4
-1503.9
-10535.4
-1504.46
-10160.2
-1505
-9784.95
-1505.51
-9409.57
-1506
-9034.07
-1506.47
-8658.46
-1506.91
-8282.75
-1507.34
-7906.94
-1507.74
-7531.03
-1508.12
-7155.04
-1508.48
-6778.97
-1508.82
-6402.81
-1509.14
-6026.58
-1509.44
-5650.28
-1509.73
-5273.92
-1510
-4897.49
-1510.25
-4521.01
-1510.49
-4144.47
-1510.71
-3767.87
-1510.92
-3391.24
-1511.11
-3014.55
-1511.29
-2637.83
-1511.45
-2261.08
-1511.6
-1884.28
-1511.73
-1507.47
-1511.85
-1130.62
-1511.94
-753.762
-1512.02
-376.886
-1512.07
-1512.11
-1080.83
5691.59
-2139.11
5546.74
-3156.24
5274.91
-4120.4
4928.11
-5027.37
4563.56
-5879.91
4228.42
-6685.55
3952.32
-7454.12
3745.96
-8195.55
3605.71
-8918.5
3519.53
-9629.72
3472.76
-10333.9
3451.75
-11034.3
3445.71
-11732.4
3447.03
-12429.4
3450.92
-13125.5
3454.58
-13820.8
3456.62
-14515.1
3456.45
-15208.1
3453.92
-15899.6
3449.13
-16589.2
3442.23
-17276.7
3433.43
-17961.9
3422.91
-18644.4
3410.84
-19324
3397.35
-20000.5
3382.57
-20673.6
3366.61
-21343.3
3349.55
-22009.2
3331.46
-22671.3
3312.42
-23329.3
3292.47
-23983.1
3271.67
-24632.6
3250.06
-25277.5
3227.68
-25917.8
3204.55
-26553.2
3180.72
-27183.8
3156.21
-27809.2
3131.05
-28429.6
3105.26
-29044.6
3078.86
-29654.2
3051.87
-30258.2
3024.32
-30856.7
2996.22
-31449.4
2967.59
-32036.2
2938.45
-32617.1
2908.81
-33192
2878.69
-33760.8
2848.11
-34323.4
2817.08
-34879.6
2785.61
-35429.5
2753.73
-35972.9
2721.43
-36509.8
2688.75
-37040
2655.68
-37563.6
2622.26
-38080.4
2588.48
-38590.4
2554.36
-39093.5
2519.92
-39589.6
2485.17
-40078.8
2450.11
-40560.8
2414.77
-41035.8
2379.16
-41503.5
2343.29
-41964.1
2307.17
-42417.4
2270.82
-42863.3
2234.24
-43301.9
2197.45
-43733.1
2160.46
-44156.9
2123.28
-44573.2
2085.93
-44982
2048.42
-45383.3
2010.76
-45777
1972.96
-46163.1
1935.02
-46541.6
1896.98
-46912.5
1858.83
-47275.8
1820.58
-47631.4
1782.26
-47979.3
1743.86
-48319.5
1705.4
-48652
1666.89
-48976.9
1628.35
-49294
1589.77
-49603.4
1551.18
-49905.1
1512.59
-50199
1473.99
-50485.3
1435.41
-50763.9
1396.85
-51034.7
1358.33
-51297.9
1319.84
-51553.4
1281.41
-51801.2
1243.04
-52041.4
1204.74
-52273.9
1166.53
-52498.8
1128.4
-52716.1
1090.36
-52925.9
1052.43
-53128
1014.62
-53322.7
976.931
-53509.8
939.371
-53689.5
901.95
-53861.7
864.674
-54026.6
827.553
-54184
790.592
-54334.1
753.8
-54476.8
717.183
-54612.3
680.748
-54740.6
644.502
-54861.6
608.452
-54975.5
572.603
-55082.3
536.962
-55182
501.534
-55274.6
466.327
-55360.3
431.344
-55439.1
396.592
-55510.9
362.076
-55575.9
327.801
-55634.1
293.772
-55685.6
259.993
-55730.3
226.469
-55768.5
193.205
-55800
160.204
-55825
127.472
-55843.5
95.0102
-55855.7
62.824
-55861.4
30.9165
-55860.8
-0.709016
-55854
-32.0493
-55840.9
-63.1013
-55821.8
-93.8624
-55796.5
-124.33
-55765.2
-154.501
-55728
-184.373
-55684.9
-213.945
-55635.9
-243.213
-55581.1
-272.177
-55520.7
-300.835
-55454.5
-329.184
-55382.8
-357.224
-55305.5
-384.953
-55222.8
-412.37
-55134.7
-439.474
-55041.2
-466.264
-54942.5
-492.739
-54838.5
-518.899
-54729.3
-544.743
-54615.1
-570.271
-54495.9
-595.483
-54371.7
-620.378
-54242.5
-644.956
-54108.6
-669.218
-53969.9
-693.164
-53826.4
-716.794
-53678.3
-740.109
-53525.6
-763.109
-53368.5
-785.795
-53206.8
-808.167
-53040.7
-830.227
-52870.3
-851.975
-52695.7
-873.413
-52516.8
-894.541
-52333.8
-915.361
-52146.7
-935.875
-51955.5
-956.083
-51760.4
-975.987
-51561.4
-995.588
-51358.6
-1014.89
-51151.9
-1033.89
-50941.5
-1052.59
-50727.5
-1071
-50509.9
-1089.12
-50288.7
-1106.94
-50064
-1124.48
-49835.9
-1141.72
-49604.4
-1158.68
-49369.5
-1175.36
-49131.4
-1191.76
-48890.1
-1207.88
-48645.7
-1223.72
-48398.1
-1239.29
-48147.5
-1254.59
-47894
-1269.61
-47637.4
-1284.38
-47378
-1298.87
-47115.8
-1313.11
-46850.7
-1327.09
-46583
-1340.81
-46312.5
-1354.28
-46039.5
-1367.49
-45763.8
-1380.46
-45485.6
-1393.18
-45205
-1405.66
-44921.9
-1417.9
-44636.4
-1429.91
-44348.6
-1441.68
-44058.5
-1453.21
-43766.1
-1464.52
-43471.5
-1475.61
-43174.8
-1486.47
-42875.9
-1497.11
-42575
-1507.53
-42272.1
-1517.74
-41967.1
-1527.73
-41660.3
-1537.52
-41351.5
-1547.1
-41040.8
-1556.48
-40728.4
-1565.66
-40414.1
-1574.64
-40098.1
-1583.43
-39780.4
-1592.02
-39461
-1600.43
-39140
-1608.65
-38817.4
-1616.69
-38493.2
-1624.54
-38167.6
-1632.22
-37840.4
-1639.73
-37511.7
-1647.06
-37181.7
-1654.22
-36850.2
-1661.22
-36517.4
-1668.05
-36183.3
-1674.73
-35847.9
-1681.24
-35511.2
-1687.6
-35173.3
-1693.8
-34834.2
-1699.86
-34493.9
-1705.77
-34152.5
-1711.53
-33809.9
-1717.15
-33466.3
-1722.63
-33121.6
-1727.97
-32775.9
-1733.18
-32429.2
-1738.26
-32081.5
-1743.2
-31732.9
-1748.02
-31383.3
-1752.72
-31032.8
-1757.29
-30681.4
-1761.74
-30329.2
-1766.07
-29976.1
-1770.29
-29622.2
-1774.39
-29267.6
-1778.39
-28912.1
-1782.27
-28556
-1786.05
-28199.1
-1789.73
-27841.4
-1793.3
-27483.1
-1796.77
-27124.2
-1800.15
-26764.6
-1803.42
-26404.3
-1806.61
-26043.4
-1809.7
-25682
-1812.71
-25320
-1815.62
-24957.4
-1818.45
-24594.3
-1821.2
-24230.6
-1823.87
-23866.4
-1826.45
-23501.8
-1828.96
-23136.6
-1831.39
-22771
-1833.75
-22405
-1836.03
-22038.5
-1838.24
-21671.6
-1840.38
-21304.3
-1842.46
-20936.6
-1844.47
-20568.5
-1846.41
-20200
-1848.29
-19831.2
-1850.11
-19462
-1851.87
-19092.5
-1853.57
-18722.7
-1855.22
-18352.5
-1856.81
-17982.1
-1858.34
-17611.3
-1859.82
-17240.3
-1861.26
-16869
-1862.64
-16497.5
-1863.97
-16125.7
-1865.25
-15753.6
-1866.49
-15381.3
-1867.68
-15008.8
-1868.83
-14636.1
-1869.94
-14263.2
-1871
-13890
-1872.03
-13516.7
-1873.01
-13143.2
-1873.95
-12769.5
-1874.86
-12395.7
-1875.73
-12021.6
-1876.57
-11647.5
-1877.37
-11273.1
-1878.14
-10898.7
-1878.87
-10524
-1879.57
-10149.3
-1880.24
-9774.43
-1880.88
-9399.45
-1881.49
-9024.35
-1882.07
-8649.14
-1882.63
-8273.83
-1883.15
-7898.42
-1883.65
-7522.92
-1884.13
-7147.33
-1884.58
-6771.65
-1885
-6395.9
-1885.4
-6020.08
-1885.78
-5644.18
-1886.14
-5268.22
-1886.47
-4892.2
-1886.79
-4516.12
-1887.09
-4139.99
-1887.36
-3763.8
-1887.62
-3387.57
-1887.86
-3011.3
-1888.08
-2634.98
-1888.29
-2258.63
-1888.47
-1882.25
-1888.63
-1505.84
-1888.78
-1129.4
-1888.9
-752.946
-1888.99
-376.476
-1889.06
-1889.1
-1051.96
6743.57
-2084.53
6579.33
-3082.09
6272.51
-4034.34
5880.4
-4937.02
5466.29
-5791.66
5083.12
-6603.93
4764.66
-7381.74
4523.84
-8133.41
4357.45
-8866.42
4252.62
-9586.82
4193.24
-10299
4164.05
-11006.1
4152.83
-11709.8
4150.85
-12411.3
4152.49
-13111
4154.42
-13809.2
4154.91
-14505.9
4153.16
-15200.8
4148.91
-15893.8
4142.21
-16584.6
4133.18
-17273.2
4122.02
-17959.1
4108.92
-18642.2
4094.04
-19322.3
4077.54
-19999.2
4059.55
-20672.7
4040.18
-21342.6
4019.53
-22008.7
3997.67
-22670.9
3974.69
-23329
3950.64
-23982.9
3925.59
-24632.3
3899.57
-25277.2
3872.64
-25917.4
3844.83
-26552.8
3816.18
-27183.2
3786.72
-27808.6
3756.48
-28428.7
3725.5
-29043.6
3693.78
-29653
3661.37
-30256.9
3628.28
-30855.1
3594.54
-31447.6
3560.16
-32034.3
3525.17
-32615
3489.58
-33189.6
3453.43
-33758.1
3416.71
-34320.5
3379.46
-34876.5
3341.68
-35426.1
3303.41
-35969.2
3264.65
-36505.8
3225.41
-37035.8
3185.73
-37559.1
3145.6
-38075.6
3105.06
-38585.3
3064.11
-39088
3022.77
-39583.9
2981.06
-40072.7
2939
-40554.4
2896.58
-41029
2853.85
-41496.5
2810.79
-41956.7
2767.45
-42409.6
2723.82
-42855.2
2679.92
-43293.5
2635.77
-43724.4
2591.38
-44147.8
2546.77
-44563.7
2501.94
-44972.2
2456.93
-45373.1
2411.73
-45766.4
2366.37
-46152.2
2320.85
-46530.4
2275.2
-46900.9
2229.41
-47263.8
2183.52
-47619
2137.53
-47966.5
2091.46
-48306.4
2045.31
-48638.5
1999.1
-48963
1952.85
-49279.7
1906.57
-49588.7
1860.26
-49890
1813.95