/*--------------------------------*- C++ -*----------------------------------*\
| =========                 |                                                 |
| \\      /  F ield         | OpenFOAM: The Open Source CFD Toolbox           |
|  \\    /   O peration     | Version:  2212                                  |
|   \\  /    A nd           | Website:  www.openfoam.com                      |
|    \\/     M anipulation  |                                                 |
\*---------------------------------------------------------------------------*/
FoamFile
{
    version     2.0;
    format      ascii;
    arch        "LSB;label=32;scalar=64";
    class       volScalarField;
    location    "20";
    object      p_rgh_0;
}
// * * * * * * * * * * * * * * * * * * * * * * * * * * * * * * * * * * * * * //

dimensions      [1 -1 -2 0 0 0 0];

internalField   nonuniform List<scalar> 
204800
(
-17.2551
-17.2468
-17.2307
-17.2064
-17.174
-17.1336
-17.0851
-17.0286
-16.9641
-16.8915
-16.811
-16.7227
-16.6265
-16.5225
-16.4109
-16.2916
-16.1648
-16.0308
-15.8894
-15.7408
-15.585
-15.4221
-15.2522
-15.0755
-14.8922
-14.7023
-14.5059
-14.3032
-14.0943
-13.8793
-13.6584
-13.4318
-13.1994
-12.9616
-12.7184
-12.4701
-12.2166
-11.9582
-11.695
-11.4271
-11.1548
-10.8781
-10.5973
-10.3124
-10.0236
-9.73105
-9.43491
-9.13533
-8.83244
-8.5264
-8.21735
-7.90545
-7.59081
-7.27361
-6.95396
-6.63203
-6.30793
-5.98182
-5.6538
-5.32405
-4.99265
-4.65977
-4.32551
-3.99
-3.65336
-3.31572
-2.97718
-2.63787
-2.29788
-1.95735
-1.61636
-1.27504
-0.933461
-0.59175
-0.249989
0.0917183
0.433287
0.774622
1.11564
1.45625
1.79639
2.13595
2.47488
2.81308
3.15051
3.48707
3.82271
4.15736
4.49096
4.82345
5.15477
5.48487
5.81369
6.14118
6.46729
6.79198
7.11519
7.4369
7.75705
8.07561
8.39254
8.7078
9.02137
9.33321
9.64329
9.95158
10.2581
10.5627
10.8655
11.1664
11.4654
11.7625
12.0576
12.3508
12.642
12.9312
13.2185
13.5037
13.787
14.0682
14.3473
14.6245
14.8996
15.1726
15.4436
15.7125
15.9794
16.2443
16.507
16.7678
17.0264
17.2831
17.5376
17.7902
18.0407
18.2891
18.5355
18.7799
19.0223
19.2627
19.5011
19.7375
19.9718
20.2043
20.4347
20.6632
20.8898
21.1144
21.3371
21.5579
21.7767
21.9937
22.2088
22.4221
22.6334
22.843
23.0506
23.2565
23.4606
23.6628
23.8633
24.0619
24.2588
24.4539
24.6473
24.839
25.0288
25.217
25.4035
25.5882
25.7712
25.9526
26.1322
26.3102
26.4865
26.6611
26.8341
27.0055
27.1752
27.3433
27.5097
27.6746
27.8378
27.9995
28.1596
28.3181
28.475
28.6304
28.7843
28.9366
29.0874
29.2368
29.3846
29.5309
29.6758
29.8192
29.9611
30.1017
30.2408
30.3784
30.5147
30.6496
30.7831
30.9153
31.046
31.1755
31.3036
31.4303
31.5558
31.6799
31.8027
31.9242
32.0445
32.1634
32.2811
32.3975
32.5127
32.6266
32.7393
32.8507
32.9609
33.0699
33.1777
33.2842
33.3896
33.4938
33.5967
33.6985
33.7991
33.8986
33.9968
34.0939
34.1899
34.2847
34.3783
34.4708
34.5621
34.6523
34.7413
34.8293
34.916
35.0017
35.0862
35.1696
35.2519
35.3331
35.4131
35.492
35.5699
35.6466
35.7222
35.7966
35.87
35.9423
36.0135
36.0835
36.1525
36.2203
36.2871
36.3528
36.4173
36.4808
36.5432
36.6045
36.6646
36.7237
36.7817
36.8386
36.8944
36.9491
37.0027
37.0552
37.1066
37.1569
37.2062
37.2543
37.3013
37.3473
37.3922
37.4359
37.4786
37.5202
37.5607
37.6001
37.6384
37.6756
37.7118
37.7468
37.7808
37.8137
37.8455
37.8762
37.9059
37.9344
37.9619
37.9883
38.0136
38.0379
38.0611
38.0832
38.1042
38.1242
38.1431
38.161
38.1777
38.1934
38.2081
38.2217
38.2343
38.2458
38.2562
38.2656
38.2739
38.2812
38.2875
38.2927
38.2969
38.3
38.3021
38.3031
-17.2154
-17.2074
-17.1914
-17.1674
-17.1354
-17.0954
-17.0474
-16.9915
-16.9276
-16.8559
-16.7763
-16.6889
-16.5937
-16.4908
-16.3803
-16.2621
-16.1363
-16.0031
-15.8625
-15.7145
-15.5593
-15.397
-15.2277
-15.0515
-14.8687
-14.6792
-14.4832
-14.2808
-14.0723
-13.8577
-13.6371
-13.4108
-13.1788
-12.9413
-12.6985
-12.4504
-12.1973
-11.9393
-11.6764
-11.409
-11.137
-10.8608
-10.5803
-10.2958
-10.0074
-9.71534
-9.41963
-9.12049
-8.81805
-8.51248
-8.20389
-7.89245
-7.5783
-7.26158
-6.94242
-6.62099
-6.29739
-5.97179
-5.64429
-5.31506
-4.98418
-4.65184
-4.3181
-3.98314
-3.64705
-3.30996
-2.97197
-2.63322
-2.29379
-1.95382
-1.6134
-1.27265
-0.931651
-0.590517
-0.249337
0.0917875
0.432771
0.773519
1.11395
1.45397
1.79351
2.13248
2.47081
2.80842
3.14525
3.48121
3.81626
4.15031
4.48331
4.8152
5.14593
5.47542
5.80364
6.13053
6.45605
6.78014
7.10276
7.42387
7.74343
8.0614
8.37773
8.69241
9.00539
9.31664
9.62614
9.93385
10.2398
10.5438
10.846
11.1463
11.4448
11.7413
12.0359
12.3285
12.6191
12.9078
13.1945
13.4792
13.7619
14.0425
14.3211
14.5977
14.8723
15.1448
15.4153
15.6837
15.95
16.2144
16.4766
16.7368
16.995
17.2511
17.5052
17.7572
18.0072
18.2551
18.5011
18.745
18.9869
19.2268
19.4647
19.7006
19.9345
20.1665
20.3965
20.6245
20.8506
21.0748
21.297
21.5173
21.7358
21.9523
22.167
22.3798
22.5907
22.7998
23.0071
23.2125
23.4162
23.618
23.8181
24.0163
24.2128
24.4075
24.6005
24.7918
24.9813
25.169
25.3551
25.5395
25.7221
25.9031
26.0824
26.26
26.4359
26.6102
26.7828
26.9538
27.1232
27.2909
27.457
27.6216
27.7845
27.9458
28.1056
28.2637
28.4204
28.5754
28.729
28.881
29.0315
29.1805
29.328
29.4741
29.6186
29.7617
29.9034
30.0436
30.1825
30.3199
30.4559
30.5905
30.7237
30.8556
30.9861
31.1152
31.2431
31.3696
31.4947
31.6186
31.7412
31.8624
31.9824
32.1011
32.2186
32.3348
32.4497
32.5634
32.6758
32.787
32.897
33.0057
33.1133
33.2196
33.3248
33.4287
33.5315
33.6331
33.7335
33.8327
33.9308
34.0277
34.1234
34.218
34.3114
34.4037
34.4948
34.5848
34.6737
34.7614
34.848
34.9335
35.0179
35.1011
35.1832
35.2642
35.3441
35.4228
35.5005
35.577
35.6525
35.7268
35.8
35.8722
35.9432
36.0131
36.0819
36.1496
36.2163
36.2818
36.3462
36.4096
36.4718
36.5329
36.593
36.6519
36.7098
36.7666
36.8223
36.8768
36.9303
36.9827
37.0341
37.0843
37.1334
37.1814
37.2284
37.2742
37.319
37.3627
37.4053
37.4468
37.4872
37.5265
37.5647
37.6019
37.638
37.6729
37.7068
37.7397
37.7714
37.8021
37.8316
37.8601
37.8876
37.9139
37.9392
37.9634
37.9865
38.0086
38.0296
38.0495
38.0684
38.0862
38.1029
38.1186
38.1333
38.1468
38.1593
38.1708
38.1812
38.1906
38.1989
38.2062
38.2125
38.2177
38.2218
38.2249
38.227
38.2281
-17.2077
-17.1998
-17.1839
-17.1601
-17.1284
-17.0887
-17.0411
-16.9856
-16.9223
-16.8511
-16.7722
-16.6855
-16.5911
-16.489
-16.3793
-16.2619
-16.137
-16.0046
-15.8647
-15.7175
-15.563
-15.4014
-15.2327
-15.057
-14.8744
-14.6852
-14.4893
-14.287
-14.0785
-13.8639
-13.6433
-13.4168
-13.1847
-12.9471
-12.7041
-12.4558
-12.2025
-11.9443
-11.6812
-11.4136
-11.1414
-10.865
-10.5843
-10.2997
-10.0111
-9.71878
-9.42288
-9.12356
-8.82093
-8.51518
-8.20641
-7.89481
-7.58048
-7.2636
-6.94428
-6.62269
-6.29894
-5.97319
-5.64555
-5.31618
-4.98517
-4.6527
-4.31884
-3.98376
-3.64755
-3.31036
-2.97227
-2.63342
-2.2939
-1.95385
-1.61335
-1.27252
-0.931448
-0.590248
-0.249007
0.0921725
0.433207
0.773999
1.11447
1.45453
1.7941
2.13309
2.47144
2.80907
3.14591
3.48188
3.81693
4.15098
4.48398
4.81586
5.14657
5.47605
5.80425
6.13111
6.4566
6.78066
7.10324
7.42431
7.74383
8.06175
8.37804
8.69266
9.00559
9.31678
9.62622
9.93387
10.2397
10.5437
10.8458
11.1461
11.4444
11.7409
12.0354
12.3279
12.6185
12.9071
13.1937
13.4783
13.7609
14.0414
14.32
14.5965
14.8709
15.1434
15.4137
15.682
15.9483
16.2125
16.4747
16.7348
16.9929
17.2489
17.5028
17.7548
18.0046
18.2525
18.4983
18.7421
18.9839
19.2237
19.4615
19.6973
19.9311
20.163
20.3929
20.6208
20.8468
21.0709
21.293
21.5132
21.7316
21.948
22.1626
22.3753
22.5861
22.7951
23.0023
23.2076
23.4112
23.6129
23.8128
24.011
24.2074
24.402
24.5949
24.786
24.9755
25.1631
25.3491
25.5334
25.7159
25.8968
26.076
26.2535
26.4293
26.6035
26.7761
26.947
27.1162
27.2839
27.4499
27.6144
27.7772
27.9384
28.0981
28.2562
28.4127
28.5677
28.7212
28.8731
29.0236
29.1725
29.3199
29.4659
29.6104
29.7534
29.895
30.0352
30.1739
30.3112
30.4471
30.5817
30.7149
30.8467
30.9771
31.1062
31.2339
31.3604
31.4855
31.6093
31.7318
31.853
31.9729
32.0916
32.2089
32.325
32.4399
32.5535
32.6659
32.7771
32.887
32.9957
33.1032
33.2095
33.3146
33.4185
33.5212
33.6227
33.723
33.8222
33.9202
34.0171
34.1127
34.2073
34.3007
34.3929
34.484
34.5739
34.6628
34.7505
34.837
34.9224
35.0068
35.0899
35.172
35.253
35.3328
35.4115
35.4891
35.5656
35.641
35.7153
35.7885
35.8606
35.9316
36.0015
36.0702
36.1379
36.2045
36.27
36.3344
36.3977
36.4599
36.521
36.5811
36.64
36.6978
36.7546
36.8102
36.8648
36.9182
36.9706
37.0219
37.0721
37.1212
37.1692
37.2161
37.262
37.3067
37.3504
37.3929
37.4344
37.4748
37.5141
37.5523
37.5895
37.6255
37.6605
37.6944
37.7272
37.7589
37.7895
37.8191
37.8476
37.875
37.9013
37.9266
37.9508
37.9739
37.996
38.017
38.0369
38.0557
38.0735
38.0903
38.106
38.1206
38.1341
38.1467
38.1581
38.1685
38.1779
38.1862
38.1935
38.1998
38.205
38.2091
38.2122
38.2143
38.2153
-17.1679
-17.16
-17.1444
-17.1209
-17.0896
-17.0505
-17.0035
-16.9488
-16.8864
-16.8162
-16.7384
-16.6529
-16.5597
-16.459
-16.3508
-16.235
-16.1117
-15.9809
-15.8427
-15.6972
-15.5444
-15.3845
-15.2174
-15.0433
-14.8621
-14.6742
-14.4794
-14.2781
-14.0704
-13.8564
-13.6362
-13.4101
-13.1782
-12.9408
-12.6979
-12.4497
-12.1965
-11.9383
-11.6752
-11.4076
-11.1355
-10.8591
-10.5784
-10.2938
-10.0052
-9.71296
-9.41711
-9.11784
-8.81528
-8.5096
-8.20091
-7.8894
-7.57517
-7.2584
-6.93919
-6.61773
-6.29411
-5.96851
-5.64102
-5.31181
-4.98098
-4.64869
-4.31502
-3.98014
-3.64414
-3.30716
-2.96929
-2.63068
-2.29141
-1.9516
-1.61136
-1.2708
-0.930004
-0.589088
-0.248138
0.0927435
0.433472
0.773951
1.1141
1.45383
1.79307
2.13172
2.46973
2.807
3.14348
3.47909
3.81376
4.14744
4.48006
4.81155
5.14187
5.47095
5.79875
6.12521
6.45029
6.77394
7.09611
7.41676
7.73586
8.05335
8.36921
8.68341
8.9959
9.30666
9.61566
9.92287
10.2283
10.5318
10.8335
11.1333
11.4312
11.7272
12.0213
12.3134
12.6035
12.8916
13.1778
13.4619
13.7441
14.0242
14.3023
14.5783
14.8523
15.1243
15.3942
15.6621
15.9279
16.1917
16.4534
16.7131
16.9707
17.2263
17.4798
17.7313
17.9808
18.2282
18.4736
18.717
18.9584
19.1977
19.4351
19.6705
19.9039
20.1353
20.3648
20.5923
20.8179
21.0416
21.2633
21.4831
21.7011
21.9171
22.1313
22.3436
22.554
22.7627
22.9694
23.1744
23.3776
23.5789
23.7785
23.9763
24.1723
24.3666
24.5591
24.7499
24.9389
25.1262
25.3118
25.4957
25.678
25.8585
26.0373
26.2145
26.39
26.5639
26.7361
26.9067
27.0756
27.2429
27.4086
27.5727
27.7353
27.8962
28.0555
28.2133
28.3696
28.5243
28.6774
28.8291
28.9792
29.1279
29.275
29.4207
29.5649
29.7077
29.849
29.9889
30.1273
30.2644
30.4001
30.5343
30.6672
30.7988
30.929
31.0578
31.1853
31.3115
31.4364
31.5599
31.6822
31.8032
31.9228
32.0413
32.1584
32.2743
32.3889
32.5023
32.6145
32.7254
32.8351
32.9436
33.0509
33.157
33.2619
33.3656
33.4681
33.5694
33.6695
33.7685
33.8663
33.963
34.0585
34.1528
34.246
34.3381
34.429
34.5188
34.6074
34.6949
34.7813
34.8666
34.9507
35.0337
35.1156
35.1964
35.2761
35.3547
35.4321
35.5085
35.5837
35.6579
35.7309
35.8029
35.8737
35.9435
36.0121
36.0797
36.1461
36.2115
36.2757
36.3389
36.401
36.462
36.5219
36.5807
36.6384
36.6951
36.7506
36.8051
36.8584
36.9107
36.9619
37.012
37.061
37.1089
37.1557
37.2015
37.2461
37.2897
37.3322
37.3736
37.4139
37.4531
37.4913
37.5283
37.5643
37.5992
37.633
37.6658
37.6974
37.728
37.7575
37.7859
37.8133
37.8396
37.8648
37.8889
37.912
37.934
37.955
37.9749
37.9937
38.0114
38.0281
38.0438
38.0584
38.0719
38.0844
38.0959
38.1063
38.1156
38.1239
38.1312
38.1374
38.1426
38.1467
38.1499
38.1519
38.153
-17.1454
-17.1377
-17.1222
-17.0989
-17.0679
-17.0292
-16.9828
-16.9286
-16.8668
-16.7974
-16.7204
-16.6358
-16.5436
-16.444
-16.3368
-16.2222
-16.1002
-15.9708
-15.834
-15.69
-15.5388
-15.3805
-15.2151
-15.0427
-14.8633
-14.6771
-14.484
-14.2843
-14.078
-13.8652
-13.6461
-13.4208
-13.1895
-12.9524
-12.7096
-12.4614
-12.208
-11.9496
-11.6862
-11.4182
-11.1457
-10.8689
-10.5878
-10.3028
-10.0138
-9.72111
-9.42485
-9.12516
-8.8222
-8.51611
-8.20703
-7.89512
-7.58051
-7.26337
-6.94379
-6.62198
-6.29801
-5.97207
-5.64425
-5.31472
-4.98358
-4.65098
-4.31703
-3.98187
-3.64559
-3.30835
-2.97024
-2.63138
-2.29188
-1.95185
-1.6114
-1.27064
-0.929656
-0.588561
-0.247442
0.0935972
0.434473
0.775091
1.11537
1.45522
1.79456
2.13331
2.47141
2.80876
3.14531
3.48098
3.81571
4.14943
4.48208
4.8136
5.14394
5.47303
5.80083
6.12729
6.45236
6.77598
7.09813
7.41874
7.7378
8.05525
8.37106
8.68519
8.99762
9.30831
9.61723
9.92436
10.2297
10.5331
10.8347
11.1344
11.4322
11.7281
12.022
12.314
12.604
12.892
13.1781
13.4621
13.7441
14.0241
14.302
14.5779
14.8518
15.1236
15.3934
15.6611
15.9268
16.1904
16.4519
16.7114
16.9689
17.2243
17.4777
17.729
17.9783
18.2255
18.4708
18.714
18.9552
19.1944
19.4316
19.6668
19.9
20.1313
20.3606
20.5879
20.8133
21.0368
21.2584
21.478
21.6958
21.9117
22.1257
22.3378
22.5481
22.7565
22.9631
23.1679
23.3709
23.5721
23.7715
23.9691
24.1649
24.359
24.5514
24.742
24.9309
25.118
25.3035
25.4872
25.6692
25.8496
26.0283
26.2053
26.3806
26.5543
26.7264
26.8968
27.0656
27.2328
27.3983
27.5623
27.7246
27.8854
28.0446
28.2023
28.3584
28.5129
28.6659
28.8175
28.9675
29.1159
29.263
29.4085
29.5526
29.6952
29.8364
29.9761
30.1145
30.2514
30.387
30.5211
30.6539
30.7853
30.9154
31.0441
31.1715
31.2975
31.4223
31.5457
31.6679
31.7887
31.9083
32.0266
32.1437
32.2594
32.374
32.4873
32.5993
32.7101
32.8197
32.9281
33.0353
33.1413
33.2461
33.3497
33.4521
33.5533
33.6533
33.7522
33.85
33.9465
34.0419
34.1362
34.2293
34.3213
34.4121
34.5018
34.5903
34.6778
34.7641
34.8493
34.9333
35.0163
35.0981
35.1788
35.2584
35.3369
35.4143
35.4906
35.5657
35.6398
35.7128
35.7847
35.8555
35.9251
35.9937
36.0612
36.1276
36.1929
36.2571
36.3202
36.3823
36.4432
36.503
36.5618
36.6195
36.676
36.7315
36.7859
36.8393
36.8915
36.9426
36.9927
37.0416
37.0895
37.1363
37.182
37.2266
37.2701
37.3126
37.3539
37.3942
37.4334
37.4715
37.5085
37.5445
37.5794
37.6131
37.6459
37.6775
37.708
37.7375
37.7659
37.7933
37.8195
37.8447
37.8688
37.8919
37.9139
37.9348
37.9547
37.9735
37.9912
38.0079
38.0236
38.0381
38.0517
38.0642
38.0756
38.086
38.0953
38.1036
38.1109
38.1171
38.1223
38.1264
38.1295
38.1316
38.1327
-17.0998
-17.0922
-17.0768
-17.0539
-17.0233
-16.9851
-16.9392
-16.8858
-16.8249
-16.7564
-16.6804
-16.5969
-16.5059
-16.4075
-16.3017
-16.1885
-16.0681
-15.9403
-15.8053
-15.6631
-15.5138
-15.3574
-15.194
-15.0236
-14.8463
-14.6622
-14.4713
-14.2739
-14.0697
-13.8591
-13.6421
-13.4187
-13.1892
-12.9536
-12.712
-12.4648
-12.212
-11.9539
-11.6908
-11.4228
-11.1502
-10.8731
-10.5918
-10.3065
-10.0172
-9.72422
-9.42765
-9.12767
-8.82441
-8.51804
-8.20869
-7.89652
-7.58166
-7.26428
-6.94448
-6.62245
-6.29827
-5.97215
-5.64415
-5.31446
-4.98317
-4.65043
-4.31636
-3.98109
-3.64471
-3.30739
-2.9692
-2.63029
-2.29075
-1.95069
-1.61022
-1.26946
-0.928484
-0.587412
-0.246329
0.0946618
0.435477
0.776021
1.11621
1.45596
1.7952
2.13383
2.47179
2.809
3.1454
3.4809
3.81545
4.14898
4.48144
4.81275
5.14287
5.47174
5.79931
6.12553
6.45034
6.77371
7.09559
7.41593
7.7347
8.05186
8.36738
8.68121
8.99333
9.30371
9.61231
9.91911
10.2241
10.5272
10.8285
11.1278
11.4253
11.7208
12.0144
12.306
12.5956
12.8833
13.1689
13.4526
13.7342
14.0138
14.2914
14.5669
14.8404
15.1118
15.3812
15.6485
15.9138
16.177
16.4382
16.6973
16.9544
17.2094
17.4624
17.7133
17.9622
18.2091
18.4539
18.6967
18.9375
19.1764
19.4132
19.648
19.8808
20.1117
20.3406
20.5676
20.7926
21.0157
21.2369
21.4562
21.6736
21.8891
22.1027
22.3145
22.5244
22.7325
22.9387
23.1431
23.3457
23.5466
23.7456
23.9429
24.1383
24.3321
24.5241
24.7143
24.9029
25.0897
25.2748
25.4582
25.6399
25.8199
25.9982
26.1749
26.3499
26.5233
26.695
26.8651
27.0336
27.2004
27.3657
27.5293
27.6914
27.8519
28.0108
28.1681
28.3239
28.4782
28.6309
28.7821
28.9319
29.0801
29.2268
29.3721
29.5159
29.6582
29.7991
29.9386
30.0767
30.2134
30.3487
30.4826
30.6151
30.7463
30.8761
31.0046
31.1317
31.2575
31.382
31.5052
31.6271
31.7478
31.8671
31.9852
32.102
32.2176
32.3319
32.4449
32.5568
32.6674
32.7768
32.8849
32.9919
33.0977
33.2023
33.3057
33.4079
33.5089
33.6088
33.7074
33.805
33.9014
33.9966
34.0906
34.1836
34.2754
34.366
34.4555
34.5439
34.6312
34.7173
34.8023
34.8862
34.969
35.0507
35.1312
35.2107
35.289
35.3663
35.4424
35.5174
35.5914
35.6642
35.7359
35.8066
35.8761
35.9446
36.0119
36.0782
36.1434
36.2075
36.2704
36.3324
36.3932
36.4529
36.5115
36.5691
36.6256
36.681
36.7353
36.7885
36.8406
36.8916
36.9416
36.9904
37.0382
37.0849
37.1305
37.1751
37.2185
37.2609
37.3022
37.3424
37.3815
37.4195
37.4565
37.4923
37.5271
37.5609
37.5935
37.6251
37.6556
37.685
37.7134
37.7406
37.7668
37.792
37.8161
37.8391
37.861
37.8819
37.9017
37.9205
37.9382
37.9549
37.9705
37.985
37.9986
38.011
38.0224
38.0328
38.0421
38.0504
38.0577
38.0639
38.069
38.0732
38.0763
38.0783
38.0794
-17.0635
-17.0559
-17.0407
-17.018
-16.9877
-16.9499
-16.9046
-16.8517
-16.7914
-16.7237
-16.6485
-16.566
-16.476
-16.3786
-16.274
-16.162
-16.0428
-15.9165
-15.7829
-15.6423
-15.4946
-15.3399
-15.1782
-15.0097
-14.8343
-14.6522
-14.4635
-14.2681
-14.0662
-13.8578
-13.6429
-13.4218
-13.1945
-12.961
-12.7215
-12.476
-12.2248
-11.9679
-11.7056
-11.4381
-11.1656
-10.8885
-10.6068
-10.3211
-10.0313
-9.7377
-9.44052
-9.13989
-8.83599
-8.52898
-8.21898
-7.90619
-7.5907
-7.27271
-6.95231
-6.6297
-6.30495
-5.97827
-5.64973
-5.31951
-4.9877
-4.65447
-4.31991
-3.98417
-3.64734
-3.30958
-2.97096
-2.63164
-2.2917
-1.95127
-1.61043
-1.26932
-0.928011
-0.586621
-0.245236
0.0960419
0.437129
0.777929
1.11836
1.45834
1.79778
2.13661
2.47476
2.81214
3.14869
3.48433
3.81901
4.15266
4.48521
4.81661
5.14681
5.47574
5.80336
6.12962
6.45446
6.77785
7.09973
7.42007
7.73883
8.05596
8.37144
8.68523
8.9973
9.30761
9.61614
9.92287
10.2278
10.5308
10.8319
11.1312
11.4285
11.7239
12.0174
12.3089
12.5984
12.8859
13.1714
13.4548
13.7363
14.0157
14.2931
14.5685
14.8418
15.113
15.3822
15.6494
15.9144
16.1775
16.4384
16.6973
16.9542
17.209
17.4618
17.7125
17.9612
18.2078
18.4524
18.695
18.9356
19.1742
19.4108
19.6454
19.878
20.1087
20.3374
20.5641
20.7889
21.0118
21.2327
21.4518
21.6689
21.8842
22.0976
22.3091
22.5188
22.7267
22.9327
23.1369
23.3392
23.5398
23.7386
23.9357
24.1309
24.3245
24.5162
24.7062
24.8945
25.0811
25.266
25.4492
25.6307
25.8105
25.9886
26.165
26.3398
26.513
26.6845
26.8544
27.0226
27.1893
27.3543
27.5178
27.6796
27.8399
27.9986
28.1558
28.3114
28.4654
28.618
28.769
28.9185
29.0666
29.2131
29.3582
29.5018
29.644
29.7847
29.924
30.0619
30.1984
30.3336
30.4673
30.5996
30.7306
30.8603
30.9886
31.1156
31.2413
31.3656
31.4887
31.6104
31.7309
31.8501
31.968
32.0847
32.2001
32.3142
32.4271
32.5388
32.6493
32.7586
32.8666
32.9734
33.0791
33.1835
33.2868
33.3888
33.4897
33.5895
33.688
33.7854
33.8817
33.9768
34.0707
34.1635
34.2552
34.3457
34.4351
34.5234
34.6106
34.6966
34.7815
34.8653
34.948
35.0295
35.11
35.1893
35.2676
35.3447
35.4207
35.4957
35.5695
35.6422
35.7139
35.7844
35.8539
35.9223
35.9895
36.0557
36.1208
36.1848
36.2477
36.3095
36.3703
36.4299
36.4885
36.546
36.6024
36.6577
36.7119
36.7651
36.8171
36.8681
36.918
36.9668
37.0145
37.0612
37.1067
37.1512
37.1946
37.2369
37.2781
37.3183
37.3573
37.3953
37.4322
37.4681
37.5028
37.5365
37.5691
37.6006
37.6311
37.6605
37.6888
37.7161
37.7422
37.7674
37.7914
37.8144
37.8363
37.8572
37.877
37.8957
37.9134
37.9301
37.9456
37.9602
37.9737
37.9861
37.9975
38.0079
38.0172
38.0255
38.0327
38.0389
38.0441
38.0482
38.0513
38.0534
38.0544
-17.0101
-17.0026
-16.9877
-16.9652
-16.9353
-16.8979
-16.8532
-16.801
-16.7414
-16.6745
-16.6003
-16.5187
-16.4298
-16.3337
-16.2303
-16.1197
-16.002
-15.8771
-15.7452
-15.6062
-15.4603
-15.3074
-15.1476
-14.9811
-14.8077
-14.6277
-14.4411
-14.248
-14.0484
-13.8423
-13.6299
-13.4113
-13.1865
-12.9555
-12.7184
-12.4755
-12.2266
-11.972
-11.7118
-11.4461
-11.175
-10.8988
-10.6178
-10.3323
-10.0424
-9.74857
-9.45097
-9.14984
-8.84539
-8.5378
-8.22721
-7.91383
-7.59777
-7.27921
-6.95826
-6.63512
-6.30985
-5.98267
-5.65364
-5.32296
-4.9907
-4.65704
-4.32206
-3.98592
-3.64871
-3.31059
-2.97163
-2.63198
-2.29174
-1.95102
-1.60991
-1.26855
-0.927004
-0.585399
-0.243817
0.0976402
0.438888
0.779832
1.12039
1.46048
1.80002
2.13892
2.47712
2.81454
3.15112
3.48677
3.82145
4.15507
4.4876
4.81895
5.14908
5.47794
5.80547
6.13162
6.45635
6.7796
7.10135
7.42154
7.74013
8.05709
8.37239
8.68598
8.99784
9.30794
9.61625
9.92274
10.2274
10.5302
10.8311
11.1301
11.4271
11.7222
12.0154
12.3066
12.5958
12.883
13.1682
13.4513
13.7325
14.0116
14.2887
14.5637
14.8366
15.1075
15.3764
15.6432
15.9079
16.1706
16.4312
16.6897
16.9462
17.2007
17.4531
17.7034
17.9517
18.198
18.4423
18.6845
18.9247
19.1629
19.3992
19.6334
19.8656
20.0959
20.3243
20.5506
20.7751
20.9976
21.2182
21.4368
21.6536
21.8685
22.0816
22.2927
22.502
22.7095
22.9152
23.119
23.321
23.5213
23.7197
23.9164
24.1113
24.3045
24.4959
24.6855
24.8735
25.0597
25.2443
25.4271
25.6082
25.7877
25.9655
26.1416
26.3161
26.4889
26.6601
26.8296
26.9976
27.1639
27.3286
27.4917
27.6533
27.8132
27.9716
28.1285
28.2838
28.4376
28.5898
28.7406
28.8898
29.0375
29.1838
29.3286
29.472
29.6139
29.7543
29.8934
30.031
30.1672
30.3021
30.4356
30.5677
30.6984
30.8278
30.9559
31.0826
31.208
31.3321
31.4549
31.5765
31.6967
31.8156
31.9333
32.0498
32.165
32.2789
32.3916
32.5031
32.6133
32.7223
32.8302
32.9368
33.0422
33.1465
33.2495
33.3514
33.4521
33.5516
33.65
33.7472
33.8432
33.9382
34.0319
34.1245
34.216
34.3064
34.3956
34.4837
34.5707
34.6565
34.7413
34.8249
34.9074
34.9888
35.0691
35.1483
35.2264
35.3034
35.3792
35.454
35.5277
35.6003
35.6718
35.7422
35.8115
35.8798
35.9469
36.013
36.0779
36.1418
36.2046
36.2663
36.3269
36.3865
36.4449
36.5023
36.5586
36.6138
36.6679
36.7209
36.7729
36.8238
36.8735
36.9223
36.9699
37.0164
37.0619
37.1063
37.1496
37.1918
37.233
37.273
37.312
37.35
37.3868
37.4226
37.4572
37.4909
37.5234
37.5549
37.5853
37.6146
37.6429
37.6701
37.6962
37.7213
37.7453
37.7682
37.7901
37.8109
37.8307
37.8494
37.8671
37.8837
37.8992
37.9137
37.9272
37.9396
37.951
37.9613
37.9706
37.9789
37.9861
37.9923
37.9975
38.0016
38.0047
38.0067
38.0078
-16.9609
-16.9535
-16.9386
-16.9164
-16.8869
-16.8499
-16.8056
-16.754
-16.6951
-16.6289
-16.5555
-16.4748
-16.3869
-16.2918
-16.1895
-16.0801
-15.9636
-15.8401
-15.7095
-15.5721
-15.4277
-15.2765
-15.1184
-14.9537
-14.7823
-14.6043
-14.4197
-14.2286
-14.0311
-13.8273
-13.6172
-13.401
-13.1785
-12.9499
-12.7153
-12.4748
-12.2285
-11.9764
-11.7186
-11.4552
-11.1863
-10.9122
-10.6328
-10.3485
-10.0594
-9.76589
-9.4682
-9.16668
-8.86165
-8.55334
-8.24196
-7.92775
-7.61082
-7.29142
-6.96963
-6.64566
-6.31959
-5.99161
-5.66181
-5.33038
-4.99738
-4.663
-4.32732
-3.99051
-3.65264
-3.31388
-2.97431
-2.63406
-2.29323
-1.95196
-1.61032
-1.26843
-0.926398
-0.584319
-0.242283
0.0996069
0.441267
0.782603
1.12353
1.46397
1.80384
2.14306
2.48155
2.81925
3.15608
3.49197
3.82686
4.16069
4.49339
4.82491
5.15519
5.48418
5.81183
6.13808
6.46289
6.78622
7.10802
7.42825
7.74687
8.06384
8.37914
8.69272
9.00456
9.31462
9.62288
9.92931
10.2339
10.5366
10.8374
11.1363
11.4332
11.7282
12.0213
12.3123
12.6014
12.8884
13.1734
13.4564
13.7374
14.0163
14.2932
14.568
14.8408
15.1115
15.3801
15.6467
15.9112
16.1736
16.434
16.6923
16.9486
17.2028
17.4549
17.705
17.9531
18.1991
18.4431
18.6851
18.925
19.163
19.399
19.6329
19.8649
20.0949
20.323
20.5491
20.7732
20.9955
21.2158
21.4342
21.6507
21.8654
22.0781
22.289
22.498
22.7052
22.9106
23.1142
23.3159
23.5159
23.7141
23.9105
24.1051
24.298
24.4891
24.6785
24.8662
25.0522
25.2364
25.419
25.5998
25.779
25.9566
26.1324
26.3066
26.4792
26.6501
26.8194
26.9871
27.1531
27.3176
27.4805
27.6418
27.8015
27.9597
28.1163
28.2714
28.4249
28.5769
28.7274
28.8764
29.0239
29.17
29.3146
29.4577
29.5994
29.7396
29.8785
30.0159
30.1519
30.2866
30.4198
30.5517
30.6823
30.8115
30.9393
31.0659
31.1911
31.315
31.4376
31.5589
31.679
31.7978
31.9153
32.0315
32.1465
32.2603
32.3728
32.4841
32.5942
32.703
32.8107
32.9171
33.0224
33.1265
33.2293
33.3311
33.4316
33.531
33.6292
33.7262
33.8221
33.9169
34.0105
34.103
34.1943
34.2845
34.3736
34.4616
34.5484
34.6341
34.7187
34.8022
34.8846
34.9659
35.046
35.1251
35.2031
35.2799
35.3557
35.4304
35.5039
35.5764
35.6478
35.7181
35.7873
35.8554
35.9225
35.9884
36.0533
36.117
36.1797
36.2413
36.3019
36.3613
36.4197
36.477
36.5332
36.5883
36.6423
36.6953
36.7471
36.7979
36.8476
36.8963
36.9438
36.9903
37.0357
37.08
37.1233
37.1654
37.2065
37.2465
37.2855
37.3233
37.3601
37.3958
37.4304
37.464
37.4965
37.5279
37.5583
37.5876
37.6158
37.6429
37.669
37.6941
37.718
37.7409
37.7628
37.7836
37.8033
37.822
37.8396
37.8562
37.8718
37.8862
37.8997
37.9121
37.9235
37.9338
37.9431
37.9513
37.9585
37.9647
37.9699
37.974
37.9771
37.9791
37.9802
-16.8986
-16.8913
-16.8767
-16.8547
-16.8255
-16.789
-16.7452
-16.6942
-16.636
-16.5706
-16.498
-16.4182
-16.3313
-16.2373
-16.1362
-16.0281
-15.913
-15.7909
-15.6618
-15.5259
-15.3831
-15.2336
-15.0774
-14.9145
-14.745
-14.569
-14.3865
-14.1975
-14.0022
-13.8007
-13.5929
-13.379
-13.159
-12.9329
-12.7008
-12.4628
-12.2191
-11.9697
-11.7146
-11.4539
-11.1877
-10.9162
-10.6394
-10.3574
-10.0703
-9.77843
-9.4819
-9.18105
-8.87621
-8.56769
-8.25583
-7.94096
-7.62328
-7.30307
-6.98045
-6.65566
-6.32877
-6
-5.66942
-5.33723
-5.00349
-4.6684
-4.33203
-3.99455
-3.65603
-3.31664
-2.97647
-2.63564
-2.29426
-1.95245
-1.6103
-1.26794
-0.925438
-0.582921
-0.240471
0.10181
0.443839
0.78552
1.12677
1.46751
1.80766
2.14713
2.48586
2.82377
3.16079
3.49685
3.8319
4.16585
4.49867
4.83028
5.16064
5.48968
5.81737
6.14364
6.46845
6.79177
7.11354
7.43372
7.75228
8.06918
8.38439
8.69787
9.00959
9.31952
9.62764
9.93391
10.2383
10.5408
10.8415
11.1401
11.4369
11.7317
12.0245
12.3153
12.6041
12.8909
13.1756
13.4584
13.739
14.0177
14.2943
14.5688
14.8412
15.1116
15.3799
15.6462
15.9104
16.1725
16.4325
16.6905
16.9464
17.2003
17.4521
17.7018
17.9496
18.1952
18.4389
18.6805
18.9201
19.1577
19.3933
19.6269
19.8585
20.0881
20.3158
20.5416
20.7654
20.9872
21.2072
21.4252
21.6414
21.8556
22.068
22.2785
22.4872
22.6941
22.8991
23.1023
23.3036
23.5032
23.701
23.8971
24.0913
24.2839
24.4746
24.6637
24.851
25.0366
25.2205
25.4027
25.5832
25.7621
25.9392
26.1147
26.2886
26.4608
26.6314
26.8004
26.9677
27.1335
27.2976
27.4601
27.6211
27.7805
27.9384
28.0947
28.2494
28.4027
28.5544
28.7046
28.8533
29.0005
29.1463
29.2906
29.4334
29.5748
29.7148
29.8533
29.9905
30.1262
30.2606
30.3936
30.5252
30.6555
30.7844
30.912
31.0383
31.1633
31.287
31.4093
31.5304
31.6502
31.7687
31.886
32.002
32.1168
32.2303
32.3426
32.4537
32.5635
32.6721
32.7796
32.8858
32.9908
33.0947
33.1974
33.2989
33.3992
33.4984
33.5964
33.6932
33.7889
33.8835
33.9769
34.0692
34.1604
34.2504
34.3393
34.4271
34.5137
34.5993
34.6837
34.767
34.8492
34.9303
35.0103
35.0892
35.167
35.2437
35.3193
35.3938
35.4673
35.5396
35.6108
35.681
35.75
35.818
35.8849
35.9507
36.0155
36.0791
36.1417
36.2032
36.2636
36.3229
36.3811
36.4383
36.4944
36.5494
36.6033
36.6561
36.7079
36.7586
36.8082
36.8568
36.9042
36.9506
36.9959
37.0401
37.0833
37.1254
37.1664
37.2063
37.2452
37.2829
37.3196
37.3553
37.3899
37.4234
37.4558
37.4871
37.5174
37.5467
37.5748
37.6019
37.628
37.653
37.6769
37.6997
37.7215
37.7423
37.762
37.7806
37.7982
37.8148
37.8303
37.8448
37.8582
37.8706
37.8819
37.8922
37.9015
37.9097
37.9169
37.9231
37.9282
37.9323
37.9354
37.9375
37.9385
-16.837
-16.8298
-16.8153
-16.7936
-16.7647
-16.7286
-16.6854
-16.6349
-16.5773
-16.5126
-16.4407
-16.3618
-16.2758
-16.1829
-16.0829
-15.9759
-15.862
-15.7412
-15.6135
-15.479
-15.3378
-15.1898
-15.0353
-14.8741
-14.7064
-14.5323
-14.3517
-14.1647
-13.9715
-13.7721
-13.5665
-13.3548
-13.137
-12.9133
-12.6836
-12.4481
-12.2069
-11.96
-11.7075
-11.4494
-11.1859
-10.9171
-10.6429
-10.3635
-10.079
-9.78957
-9.49524
-9.19622
-8.89267
-8.58494
-8.27333
-7.95822
-7.63995
-7.31894
-6.99538
-6.66959
-6.34167
-6.01189
-5.6803
-5.34712
-5.01242
-4.67638
-4.33909
-4.00071
-3.66132
-3.32109
-2.98008
-2.63846
-2.29631
-1.95375
-1.61088
-1.26782
-0.924657
-0.581499
-0.238433
0.104438
0.447031
0.78925
1.13102
1.47224
1.81285
2.15276
2.4919
2.8302
3.16759
3.50399
3.83936
4.17361
4.5067
4.83857
5.16916
5.49841
5.82629
6.15273
6.4777
6.80114
7.12303
7.4433
7.76194
8.0789
8.39415
8.70766
9.01939
9.32932
9.63742
9.94366
10.248
10.5505
10.851
11.1496
11.4463
11.7409
12.0336
12.3243
12.613
12.8996
13.1842
13.4667
13.7472
14.0257
14.3021
14.5764
14.8486
15.1188
15.3869
15.6529
15.9168
16.1787
16.4385
16.6962
16.9519
17.2055
17.457
17.7065
17.9539
18.1993
18.4427
18.684
18.9233
19.1606
19.3959
19.6292
19.8605
20.0899
20.3173
20.5427
20.7662
20.9878
21.2074
21.4251
21.641
21.8549
22.067
22.2772
22.4856
22.6921
22.8968
23.0997
23.3007
23.5
23.6975
23.8932
24.0872
24.2794
24.4698
24.6586
24.8456
25.0309
25.2144
25.3963
25.5766
25.7551
25.932
26.1072
26.2807
26.4526
26.6229
26.7916
26.9586
27.1241
27.2879
27.4502
27.6109
27.77
27.9276
28.0836
28.2381
28.391
28.5425
28.6924
28.8409
28.9878
29.1333
29.2774
29.42
29.5611
29.7008
29.8391
29.976
30.1116
30.2457
30.3785
30.5098
30.6399
30.7686
30.896
31.022
31.1468
31.2702
31.3924
31.5132
31.6328
31.7511
31.8682
31.984
32.0985
32.2118
32.3239
32.4348
32.5444
32.6529
32.7601
32.8661
32.971
33.0746
33.1771
33.2784
33.3786
33.4776
33.5754
33.6721
33.7676
33.862
33.9552
34.0474
34.1383
34.2282
34.3169
34.4045
34.491
34.5764
34.6607
34.7438
34.8259
34.9069
34.9867
35.0655
35.1431
35.2197
35.2951
35.3695
35.4428
35.515
35.5861
35.6561
35.7251
35.7929
35.8597
35.9254
35.99
36.0535
36.116
36.1774
36.2377
36.2969
36.355
36.4121
36.468
36.5229
36.5768
36.6295
36.6812
36.7318
36.7813
36.8298
36.8771
36.9234
36.9687
37.0128
37.0559
37.0979
37.1388
37.1787
37.2175
37.2552
37.2918
37.3274
37.3619
37.3954
37.4277
37.459
37.4893
37.5185
37.5466
37.5736
37.5996
37.6246
37.6484
37.6713
37.693
37.7137
37.7334
37.752
37.7696
37.7861
37.8016
37.816
37.8294
37.8418
37.8531
37.8634
37.8727
37.8809
37.8881
37.8942
37.8994
37.9035
37.9065
37.9086
37.9096
-16.7651
-16.7579
-16.7436
-16.7222
-16.6936
-16.6579
-16.6152
-16.5653
-16.5083
-16.4443
-16.3733
-16.2952
-16.2102
-16.1182
-16.0193
-15.9136
-15.8009
-15.6814
-15.5551
-15.4221
-15.2824
-15.1361
-14.9832
-14.8238
-14.6579
-14.4856
-14.307
-14.122
-13.9309
-13.7336
-13.5301
-13.3206
-13.1052
-12.8838
-12.6566
-12.4236
-12.1849
-11.9405
-11.6906
-11.4353
-11.1745
-10.9083
-10.6369
-10.3603
-10.0786
-9.79198