/*--------------------------------*- C++ -*----------------------------------*\
| =========                 |                                                 |
| \\      /  F ield         | OpenFOAM: The Open Source CFD Toolbox           |
|  \\    /   O peration     | Version:  2212                                  |
|   \\  /    A nd           | Website:  www.openfoam.com                      |
|    \\/     M anipulation  |                                                 |
\*---------------------------------------------------------------------------*/
FoamFile
{
    version     2.0;
    format      ascii;
    arch        "LSB;label=32;scalar=64";
    class       surfaceScalarField;
    location    "20";
    object      phi;
}
// * * * * * * * * * * * * * * * * * * * * * * * * * * * * * * * * * * * * * //

dimensions      [1 0 -1 0 0 0 0];

oriented        oriented;

internalField   nonuniform List<scalar> 
408640
(
-159.58
159.089
-318.667
159.224
-477.567
159.041
-636.57
159.145
-795.578
159.146
-954.228
158.782
-1112.47
158.363
-1270.51
158.152
-1428.12
157.708
-1584.86
156.813
-1740.43
155.643
-1894.98
154.594
-2048.42
153.454
-2200.38
151.961
-2350.46
150.049
-2497.84
147.335
-2642.78
144.868
-2786.54
143.672
-2929.56
142.895
-3071.32
141.617
-3211.12
139.641
-3348.1
136.793
-3481.93
133.621
-3613.32
131.169
-3742.85
129.287
-3870.22
127.122
-3994.88
124.403
-4116.6
121.445
-4235.54
118.659
-4351.93
116.114
-4465.72
113.5
-4576.59
110.581
-4684.49
107.607
-4789.57
104.79
-4891.81
101.943
-4991.12
99.0188
-5087.47
96.0546
-5180.91
93.1415
-5271.37
90.172
-5358.88
87.2118
-5443.42
84.2464
-5524.98
81.2614
-5603.54
78.259
-5679.11
75.2725
-5751.69
72.2872
-5821.3
69.3075
-5887.94
66.3448
-5951.62
63.3858
-6012.37
60.4522
-6070.2
57.5322
-6125.13
54.6358
-6177.2
51.7659
-6226.42
48.9196
-6272.83
46.1098
-6316.45
43.3264
-6357.34
40.5855
-6395.51
37.8743
-6431.02
35.2093
-6463.9
32.5774
-6494.19
29.9936
-6521.94
27.4461
-6547.19
24.9478
-6569.98
22.489
-6590.36
20.0798
-6608.38
17.7131
-6624.08
15.3965
-6637.51
13.1251
-6648.72
10.9042
-6657.76
8.73054
-6664.67
6.60771
-6669.51
4.53379
-6672.33
2.511
-6673.18
0.538111
-6672.11
-1.38347
-6669.16
-3.25463
-6664.4
-5.0745
-6657.87
-6.84383
-6649.62
-8.56212
-6639.71
-10.2301
-6628.18
-11.8475
-6615.08
-13.4151
-6600.46
-14.9329
-6584.38
-16.4016
-6566.88
-17.8213
-6548.01
-19.193
-6527.81
-20.5167
-6506.34
-21.7935
-6483.65
-23.0237
-6459.76
-24.2081
-6434.74
-25.3473
-6408.63
-26.4421
-6381.47
-27.4931
-6353.3
-28.5013
-6324.17
-29.4672
-6294.11
-30.3918
-6263.17
-31.2757
-6231.39
-32.1199
-6198.8
-32.9252
-6165.45
-33.6924
-6131.37
-34.4223
-6096.6
-35.1158
-6061.18
-35.7737
-6025.13
-36.3969
-5988.49
-36.9862
-5951.3
-37.5425
-5913.59
-38.0667
-5875.38
-38.5595
-5836.72
-39.0218
-5797.63
-39.4545
-5758.13
-39.8584
-5718.26
-40.2343
-5678.04
-40.583
-5637.5
-40.9053
-5596.67
-41.202
-5555.57
-41.474
-5514.22
-41.7219
-5472.65
-41.9465
-5430.88
-42.1486
-5388.93
-42.329
-5346.83
-42.4883
-5304.59
-42.6273
-5262.23
-42.7467
-5219.77
-42.8471
-5177.23
-42.9293
-5134.64
-42.9938
-5091.99
-43.0414
-5049.32
-43.0727
-5006.63
-43.0883
-4963.95
-43.0888
-4921.28
-43.0747
-4878.65
-43.0468
-4836.05
-43.0055
-4793.52
-42.9513
-4751.05
-42.8849
-4708.67
-42.8067
-4666.37
-42.7172
-4624.18
-42.617
-4582.11
-42.5065
-4540.15
-42.3861
-4498.33
-42.2564
-4456.66
-42.1178
-4415.13
-41.9707
-4373.76
-41.8155
-4332.55
-41.6526
-4291.52
-41.4824
-4250.67
-41.3053
-4210
-41.1216
-4169.53
-40.9317
-4129.26
-40.7361
-4089.18
-40.5348
-4049.32
-40.3284
-4009.67
-40.1172
-3970.24
-39.9013
-3931.04
-39.6812
-3892.05
-39.4571
-3853.3
-39.2292
-3814.78
-38.9979
-3776.5
-38.7634
-3738.45
-38.5259
-3700.65
-38.2857
-3663.09
-38.043
-3625.78
-37.7981
-3588.71
-37.5511
-3551.89
-37.3022
-3515.33
-37.0517
-3479.01
-36.7998
-3442.95
-36.5465
-3407.14
-36.2922
-3371.59
-36.0369
-3336.29
-35.7809
-3301.25
-35.5243
-3266.46
-35.2671
-3231.93
-35.0097
-3197.65
-34.7521
-3163.63
-34.4944
-3129.86
-34.2368
-3096.35
-33.9794
-3063.1
-33.7223
-3030.1
-33.4656
-2997.35
-33.2094
-2964.85
-32.9538
-2932.6
-32.6989
-2900.61
-32.4448
-2868.86
-32.1916
-2837.36
-31.9393
-2806.11
-31.6881
-2775.1
-31.438
-2744.34
-31.1891
-2713.82
-30.9414
-2683.54
-30.695
-2653.5
-30.45
-2623.69
-30.2064
-2594.12
-29.9643
-2564.79
-29.7236
-2535.69
-29.4846
-2506.82
-29.2472
-2478.17
-29.0114
-2449.76
-28.7773
-2421.56
-28.545
-2393.59
-28.3144
-2365.84
-28.0856
-2338.31
-27.8587
-2310.99
-27.6336
-2283.88
-27.4104
-2256.99
-27.1892
-2230.3
-26.9699
-2203.82
-26.7525
-2177.55
-26.5372
-2151.48
-26.3238
-2125.6
-26.1125
-2099.92
-25.9032
-2074.44
-25.696
-2049.15
-25.4909
-2024.04
-25.2879
-1999.13
-25.0869
-1974.4
-24.8881
-1949.85
-24.6914
-1925.48
-24.4969
-1901.29
-24.3045
-1877.27
-24.1142
-1853.43
-23.9261
-1829.75
-23.7401
-1806.25
-23.5564
-1782.91
-23.3747
-1759.73
-23.1953
-1736.71
-23.018
-1713.86
-22.8429
-1691.15
-22.67
-1668.61
-22.4992
-1646.21
-22.3306
-1623.96
-22.1642
-1601.86
-22
-1579.9
-21.8379
-1558.09
-21.6779
-1536.42
-21.5201
-1514.88
-21.3645
-1493.48
-21.211
-1472.21
-21.0596
-1451.08
-20.9104
-1430.07
-20.7633
-1409.19
-20.6183
-1388.43
-20.4754
-1367.8
-20.3347
-1347.29
-20.196
-1326.89
-20.0594
-1306.61
-19.9249
-1286.44
-19.7924
-1266.39
-19.6621
-1246.45
-19.5337
-1226.61
-19.4075
-1206.88
-19.2832
-1187.25
-19.161
-1167.72
-19.0408
-1148.3
-18.9226
-1128.97
-18.8065
-1109.73
-18.6923
-1090.59
-18.5801
-1071.54
-18.4698
-1052.58
-18.3616
-1033.71
-18.2552
-1014.93
-18.1509
-996.227
-18.0484
-977.608
-17.9479
-959.069
-17.8493
-940.609
-17.7527
-922.226
-17.6579
-903.917
-17.565
-885.682
-17.474
-867.517
-17.3849
-849.423
-17.2976
-831.396
-17.2122
-813.436
-17.1287
-795.54
-17.047
-777.707
-16.9671
-759.935
-16.889
-742.223
-16.8128
-724.568
-16.7384
-706.97
-16.6657
-689.426
-16.5949
-671.936
-16.5259
-654.498
-16.4586
-637.109
-16.3931
-619.769
-16.3294
-602.476
-16.2674
-585.228
-16.2072
-568.025
-16.1487
-550.865
-16.092
-533.745
-16.037
-516.666
-15.9838
-499.625
-15.9323
-482.621
-15.8825
-465.653
-15.8344
-448.72
-15.788
-431.82
-15.7434
-414.952
-15.7004
-398.114
-15.6591
-381.306
-15.6196
-364.525
-15.5817
-347.772
-15.5455
-331.044
-15.511
-314.341
-15.4781
-297.661
-15.447
-281.003
-15.4175
-264.366
-15.3897
-247.749
-15.3635
-231.15
-15.339
-214.568
-15.3161
-198.002
-15.2949
-181.451
-15.2754
-164.913
-15.2574
-148.388
-15.2412
-131.875
-15.2265
-115.371
-15.2136
-98.8755
-15.2022
-82.3877
-15.1925
-65.906
-15.1845
-49.4291
-15.1782
-32.9551
-15.1743
-16.4809
-15.1737
-15.18
-157.787
316.773
-315.603
316.939
-473.542
316.896
-631.422
316.943
-789.09
316.733
-946.571
316.189
-1103.7
315.421
-1260.27
314.66
-1416.24
313.609
-1571.63
312.138
-1726.31
310.276
-1880.04
308.275
-2032.68
306.043
-2184.19
303.433
-2334.37
300.193
-2482.77
295.708
-2629.42
291.502
-2774.71
288.935
-2918.66
286.804
-3060.94
283.82
-3201.1
279.718
-3338.49
274.078
-3472.77
267.786
-3604.65
262.912
-3734.7
259.185
-3862.56
254.8
-3987.56
249.196
-4109.46
243.127
-4228.53
237.489
-4345.06
232.393
-4458.92
227.1
-4569.69
221.071
-4677.35
214.988
-4782.23
209.386
-4884.32
203.747
-4983.48
197.888
-5079.66
191.941
-5172.93
186.119
-5263.22
180.166
-5350.54
174.236
-5434.91
168.32
-5516.29
162.354
-5594.68
156.346
-5670.08
150.377
-5742.5
144.409
-5811.94
138.451
-5878.42
132.53
-5941.94
126.614
-6002.54
120.751
-6060.22
114.914
-6115.01
109.124
-6166.93
103.388
-6216
97.6981
-6262.27
92.0824
-6305.76
86.5189
-6346.52
81.0412
-6384.57
75.6227
-6419.95
70.2969
-6452.71
65.0372
-6482.9
59.874
-6510.53
54.7834
-6535.68
49.791
-6558.37
44.8776
-6578.66
40.0635
-6596.58
35.3345
-6612.19
30.7055
-6625.54
26.167
-6636.67
21.7291
-6645.63
17.386
-6652.47
13.1445
-6657.25
9.00077
-6660.01
4.95924
-6660.79
1.01755
-6659.67
-2.82158
-6656.67
-6.55987
-6651.86
-10.1956
-6645.29
-13.7303
-6637
-17.163
-6627.05
-20.495
-6615.49
-23.726
-6602.36
-26.8575
-6587.72
-29.8892
-6571.62
-32.8229
-6554.1
-35.6588
-6535.22
-38.3984
-6515.01
-41.0425
-6493.54
-43.5926
-6470.84
-46.0495
-6446.96
-48.415
-6421.94
-50.6901
-6395.83
-52.8765
-6368.68
-54.9755
-6340.53
-56.9887
-6311.41
-58.9176
-6281.37
-60.7638
-6250.45
-62.5289
-6218.7
-64.2146
-6186.14
-65.8224
-6152.82
-67.3542
-6118.77
-68.8114
-6084.04
-70.1959
-6048.65
-71.5094
-6012.64
-72.7535
-5976.04
-73.9299
-5938.9
-75.0404
-5901.23
-76.0866
-5863.08
-77.0702
-5824.46
-77.993
-5785.42
-78.8565
-5745.98
-79.6625
-5706.16
-80.4125
-5666
-81.1082
-5625.52
-81.7513
-5584.75
-82.3432
-5543.71
-82.8856
-5502.43
-83.38
-5460.92
-83.828
-5419.22
-84.231
-5377.34
-84.5905
-5335.3
-84.908
-5293.13
-85.1849
-5250.84
-85.4226
-5208.45
-85.6225
-5165.99
-85.7859
-5123.46
-85.9142
-5080.89
-86.0086
-5038.29
-86.0704
-4995.68
-86.1008
-4953.07
-86.1011
-4910.48
-86.0724
-4867.92
-86.016
-4825.41
-85.9328
-4782.95
-85.824
-4740.56
-85.6907
-4698.26
-85.5339
-4656.04
-85.3546
-4613.93
-85.1538
-4571.94
-84.9325
-4530.06
-84.6916
-4488.32
-84.432
-4446.73
-84.1545
-4405.28
-83.8601
-4363.99
-83.5496
-4322.86
-83.2237
-4281.91
-82.8832
-4241.14
-82.529
-4200.56
-82.1617
-4160.17
-81.782
-4119.97
-81.3906
-4079.98
-80.9883
-4040.2
-80.5756
-4000.63
-80.1532
-3961.28
-79.7216
-3922.15
-79.2815
-3883.25
-78.8334
-3844.58
-78.3779
-3806.14
-77.9155
-3767.94
-77.4467
-3729.97
-76.972
-3692.25
-76.4919
-3654.76
-76.0068
-3617.53
-75.5172
-3580.54
-75.0235
-3543.8
-74.5261
-3507.31
-74.0254
-3471.07
-73.5219
-3435.09
-73.0158
-3399.35
-72.5074
-3363.88
-71.9973
-3328.65
-71.4856
-3293.69
-70.9727
-3258.97
-70.4589
-3224.52
-69.9444
-3190.31
-69.4296
-3156.37
-68.9146
-3122.67
-68.3998
-3089.24
-67.8854
-3056.05
-67.3716
-3023.12
-66.8586
-2990.44
-66.3466
-2958.02
-65.8359
-2925.84
-65.3266
-2893.92
-64.8188
-2862.24
-64.3129
-2830.81
-63.8088
-2799.63
-63.3068
-2768.69
-62.8071
-2737.99
-62.3096
-2707.54
-61.8147
-2677.33
-61.3224
-2647.35
-60.8328
-2617.61
-60.346
-2588.11
-59.8622
-2558.84
-59.3815
-2529.81
-58.9038
-2501
-58.4294
-2472.42
-57.9583
-2444.07
-57.4906
-2415.94
-57.0264
-2388.03
-56.5656
-2360.34
-56.1085
-2332.87
-55.6551
-2305.61
-55.2054
-2278.56
-54.7595
-2251.73
-54.3174
-2225.11
-53.8792
-2198.69
-53.4449
-2172.47
-53.0147
-2146.45
-52.5884
-2120.64
-52.1662
-2095.02
-51.748
-2069.59
-51.334
-2044.36
-50.9242
-2019.31
-50.5185
-1994.45
-50.1171
-1969.78
-49.7198
-1945.28
-49.3268
-1920.97
-48.9381
-1896.83
-48.5536
-1872.87
-48.1735
-1849.08
-47.7977
-1825.46
-47.4261
-1802.01
-47.0589
-1778.72
-46.6961
-1755.6
-46.3375
-1732.64
-45.9833
-1709.83
-45.6335
-1687.18
-45.288
-1664.68
-44.9468
-1642.34
-44.6099
-1620.14
-44.2774
-1598.09
-43.9492
-1576.19
-43.6254
-1554.42
-43.3058
-1532.8
-42.9906
-1511.31
-42.6796
-1489.96
-42.3729
-1468.74
-42.0705
-1447.66
-41.7723
-1426.7
-41.4784
-1405.87
-41.1887
-1385.16
-40.9032
-1364.57
-40.622
-1344.11
-40.3449
-1323.76
-40.072
-1303.52
-39.8032
-1283.41
-39.5386
-1263.4
-39.2781
-1243.5
-39.0217
-1223.71
-38.7694
-1204.02
-38.5212
-1184.44
-38.277
-1164.96
-38.0368
-1145.58
-37.8007
-1126.29
-37.5686
-1107.11
-37.3404
-1088.01
-37.1162
-1069.01
-36.896
-1050.09
-36.6797
-1031.26
-36.4672
-1012.52
-36.2587
-993.865
-36.054
-975.29
-35.8532
-956.795
-35.6562
-938.378
-35.4631
-920.037
-35.2737
-901.772
-35.0881
-883.579
-34.9063
-865.457
-34.7282
-847.406
-34.5539
-829.421
-34.3832
-811.503
-34.2163
-793.649
-34.053
-775.858
-33.8934
-758.128
-33.7374
-740.458
-33.5851
-722.845
-33.4364
-705.288
-33.2913
-687.786
-33.1497
-670.337
-33.0118
-652.94
-32.8774
-635.592
-32.7465
-618.293
-32.6192
-601.041
-32.4954
-583.835
-32.3751
-566.672
-32.2583
-549.552
-32.1449
-532.474
-32.0351
-515.435
-31.9287
-498.435
-31.8257
-481.471
-31.7262
-464.544
-31.6301
-447.65
-31.5375
-430.79
-31.4482
-413.962
-31.3624
-397.165
-31.2799
-380.396
-31.2009
-363.656
-31.1252
-346.943
-31.0529
-330.255
-30.9839
-313.591
-30.9183
-296.951
-30.856
-280.333
-30.7971
-263.735
-30.7415
-247.158
-30.6892
-230.598
-30.6402
-214.056
-30.5946
-197.529
-30.5522
-181.018
-30.5131
-164.52
-30.4773
-148.034
-30.4448
-131.56
-30.4155
-115.096
-30.3895
-98.6398
-30.3668
-82.1915
-30.3474
-65.7496
-30.3312
-49.3126
-30.3185
-32.879
-30.31
-16.4451
-30.3091
-30.3261
-156.081
472.597
-312.27
472.875
-468.69
473.066
-624.927
472.933
-780.818
472.381
-936.637
471.769
-1092.19
470.739
-1247.05
469.298
-1401.24
467.572
-1555.04
465.726
-1708.38
463.406
-1860.81
460.492
-2012.22
457.264
-2162.82
453.841
-2312.65
449.843
-2461.61
444.506
-2609.5
439.25
-2755.97
435.277
-2900.68
431.391
-3043.4
426.438
-3184.3
420.521
-3323.4
413.108
-3460.29
404.629
-3594.85
397.434
-3727.12
391.391
-3856.62
384.22
-3982.81
375.279
-4105.67
365.863
-4225.63
357.313
-4343.07
349.66
-4457.76
341.588
-4569.07
332.163
-4677.04
322.728
-4782.2
314.289
-4884.51
305.794
-4983.73
296.831
-5079.87
287.794
-5173.11
279.072
-5263.35
270.118
-5350.61
261.205
-5434.94
252.356
-5516.27
243.388
-5594.56
234.339
-5669.86
225.386
-5742.19
216.437
-5811.53
207.498
-5877.92
198.619
-5941.34
189.739
-6001.83
180.945
-6059.4
172.19
-6114.08
163.502
-6165.88
154.897
-6214.84
146.36
-6261
137.938
-6304.37
129.592
-6345
121.377
-6382.93
113.251
-6418.2
105.265
-6450.84
97.3775
-6480.9
89.6357
-6508.42
82.0026
-6533.45
74.5172
-6556.02
67.1502
-6576.2
59.9322
-6594.01
52.8419
-6609.51
45.9015
-6622.74
39.0969
-6633.76
32.4435
-6642.61
25.9323
-6649.35
19.5734
-6654.01
13.3615
-6656.67
7.30284
-6657.35
1.39415
-6656.12
-4.36067
-6653.03
-9.96408
-6648.12
-15.4136
-6641.45
-20.7115
-6633.07
-25.8563
-6623.03
-30.8501
-6611.38
-35.6923
-6598.17
-40.3851
-6583.45
-44.9284
-6567.26
-49.3245
-6549.67
-53.5739
-6530.71
-57.6789
-6510.43
-61.6406
-6488.89
-65.4613
-6466.12
-69.1424
-6442.18
-72.6863
-6417.1
-76.0946
-6390.93
-79.3699
-6363.72
-82.5142
-6335.52
-85.5298
-6306.35
-88.419
-6276.26
-91.1842
-6245.3
-93.8278
-6213.5
-96.3523
-6180.9
-98.7602
-6147.54
-101.054
-6113.46
-103.236
-6078.69
-105.309
-6043.27
-107.276
-6007.23
-109.138
-5970.61
-110.899
-5933.44
-112.562
-5895.75
-114.128
-5857.58
-115.6
-5818.95
-116.981
-5779.89
-118.273
-5740.44
-119.479
-5700.61
-120.601
-5660.44
-121.642
-5619.96
-122.604
-5579.18
-123.489
-5538.14
-124.3
-5496.85
-125.039
-5455.35
-125.709
-5413.64
-126.311
-5371.77
-126.848
-5329.74
-127.322
-5287.57
-127.735
-5245.29
-128.09
-5202.91
-128.388
-5160.46
-128.631
-5117.95
-128.821
-5075.39
-128.961
-5032.81
-129.052
-4990.21
-129.096
-4947.62
-129.095
-4905.05
-129.051
-4862.51
-128.965
-4820.02
-128.839
-4777.59
-128.674
-4735.22
-128.473
-4692.94
-128.237
-4650.75
-127.967
-4608.67
-127.665
-4566.7
-127.332
-4524.85
-126.969
-4483.14
-126.579
-4441.57
-126.162
-4400.15
-125.72
-4358.89
-125.253
-4317.8
-124.764
-4276.88
-124.252
-4236.14
-123.721
-4195.59
-123.169
-4155.23
-122.599
-4115.07
-122.012
-4075.11
-121.408
-4035.37
-120.788
-3995.83
-120.154
-3956.52
-119.507
-3917.43
-118.846
-3878.56
-118.174
-3839.92
-117.491
-3801.52
-116.797
-3763.35
-116.093
-3725.42
-115.381
-3687.73
-114.661
-3650.29
-113.933
-3613.09
-113.199
-3576.14
-112.458
-3539.44
-111.712
-3502.99
-110.962
-3466.79
-110.206
-3430.84
-109.447
-3395.14
-108.685
-3359.7
-107.92
-3324.52
-107.152
-3289.59
-106.383
-3254.91
-105.613
-3220.49
-104.841
-3186.33
-104.069
-3152.42
-103.297
-3118.77
-102.525
-3085.37
-101.754
-3052.22
-100.983
-3019.33
-100.214
-2986.69
-99.4464
-2954.3
-98.6806
-2922.16
-97.9169
-2890.27
-97.1556
-2858.63
-96.397
-2827.24
-95.6412
-2796.09
-94.8886
-2765.19
-94.1393
-2734.53
-93.3936
-2704.11
-92.6515
-2673.94
-91.9134
-2644
-91.1794
-2614.3
-90.4496
-2584.83
-89.7243
-2555.6
-89.0035
-2526.6
-88.2875
-2497.82
-87.5763
-2469.28
-86.87
-2440.96
-86.1688
-2412.86
-85.4729
-2384.99
-84.7822
-2357.34
-84.097
-2329.9
-83.4172
-2302.67
-82.7431
-2275.66
-82.0746
-2248.86
-81.4119
-2222.27
-80.755
-2195.89
-80.104
-2169.7
-79.459
-2143.72
-78.82
-2117.94
-78.1871
-2092.35
-77.5603
-2066.95
-76.9397
-2041.75
-76.3253
-2016.74
-75.7172
-1991.91
-75.1154
-1967.27
-74.52
-1942.8
-73.9309
-1918.52
-73.3482
-1894.42
-72.7719
-1870.49
-72.2021
-1846.73
-71.6387
-1823.14
-71.0818
-1799.72
-70.5314
-1776.46
-69.9874
-1753.36
-69.45
-1730.43
-68.9191
-1707.65
-68.3947
-1685.03
-67.8768
-1662.57
-67.3654
-1640.25
-66.8605
-1618.08
-66.362
-1596.06
-65.8701
-1574.18
-65.3846
-1552.45
-64.9056
-1530.85
-64.4331
-1509.39
-63.967
-1488.07
-63.5073
-1466.88
-63.054
-1445.82
-62.607
-1424.89
-62.1665
-1404.08
-61.7323
-1383.4
-61.3044
-1362.84
-60.8828
-1342.4
-60.4674
-1322.08
-60.0584
-1301.87
-59.6555
-1281.78
-59.2589
-1261.8
-58.8684
-1241.93
-58.4841
-1222.16
-58.106
-1202.5
-57.7339
-1182.94
-57.3679
-1163.49
-57.0079
-1144.13
-56.654
-1124.87
-56.306
-1105.71
-55.9641
-1086.64
-55.628
-1067.66
-55.2979
-1048.77
-54.9736
-1029.96
-54.6552
-1011.25
-54.3427
-992.612
-54.0359
-974.06
-53.7349
-955.589
-53.4396
-937.196
-53.1501
-918.879
-52.8663
-900.636
-52.5881
-882.467
-52.3155
-864.369
-52.0486
-846.34
-51.7873
-828.378
-51.5315
-810.483
-51.2813
-792.652
-51.0366
-774.884
-50.7973
-757.176
-50.5636
-739.528
-50.3352
-721.938
-50.1123
-704.403
-49.8948
-686.924
-49.6827
-669.497
-49.4759
-652.121
-49.2744
-634.796
-49.0783
-617.519
-48.8874
-600.288
-48.7018
-583.104
-48.5215
-565.963
-48.3464
-548.864
-48.1765
-531.807
-48.0119
-514.79
-47.8524
-497.811
-47.6981
-480.869
-47.5489
-463.963
-47.4049
-447.091
-47.266
-430.252
-47.1323
-413.445
-47.0036
-396.668
-46.88
-379.921
-46.7615
-363.202
-46.648
-346.509
-46.5396
-329.842
-46.4363
-313.2
-46.3379
-296.581
-46.2446
-279.983
-46.1563
-263.406
-46.0729
-246.849
-45.9945
-230.31
-45.9211
-213.789
-45.8527
-197.283
-45.7892
-180.792
-45.7306
-164.315
-45.6769
-147.85
-45.6282
-131.396
-45.5844
-114.952
-45.5454
-98.5166
-45.5114
-82.0887
-45.4822
-65.667
-45.458
-49.2502
-45.4389
-32.8363
-45.4263
-16.4218
-45.4253
-45.4493
-154.334
626.615
-308.662
626.886
-463.093
627.179
-617.433
626.96
-771.513
626.153
-925.413
625.36
-1078.94
623.958
-1231.89
621.94
-1384.3
619.674
-1536.28
617.403
-1687.73
614.558
-1838.41
610.87
-1988.25
606.806
-2137.26
602.561
-2285.53
597.821
-2433.12
591.809
-2579.88
585.73
-2725.44
580.569
-2869.5
575.198
-3011.88
568.58
-3152.82
561.248
-3292.92
552.996
-3431.94
543.479
-3569.13
534.472
-3703.96
526.093
-3836.06
516.208
-3965.24
504.373
-4091.64
492.208
-4215.25
480.866
-4335.78
470.104
-4452.79
458.498
-4565.78
445.031
-4675.03
431.842
-4781.31
420.392
-4884.58
408.86
-4984.47
396.494
-5081.03
384.113
-5174.56
372.345
-5264.91
360.192
-5352.15
348.168
-5436.48
336.4
-5517.78
324.397
-5595.98
312.243
-5671.18
300.294
-5743.4
288.357
-5812.62
276.42
-5878.87
264.581
-5942.16
252.726
-6002.51
241.002
-6059.94
229.323
-6114.47
217.732
-6166.12
206.255
-6214.92
194.865
-6260.92
183.632
-6304.12
172.501
-6344.59
161.548
-6382.35
150.712
-6417.45
140.065
-6449.93
129.55
-6479.82
119.23
-6507.17
109.055
-6532.03
99.0766
-6554.44
89.2566
-6574.45
79.6354
-6592.09
70.1845
-6607.43
60.9336
-6620.5
51.8642
-6631.36
42.9961
-6640.05
34.3183
-6646.62
25.8435
-6651.13
17.5652
-6653.63
9.49128
-6654.16
1.61772
-6652.78
-6.05057
-6649.54
-13.5167
-6644.49
-20.7775
-6637.67
-27.8359
-6629.15
-34.6899
-6618.98
-41.3425
-6607.19
-47.7928
-6593.85
-54.0437
-6579
-60.0952
-6562.69
-65.9504
-6544.97
-71.6099
-6525.9
-77.0769
-6505.51
-82.3526
-6483.85
-87.4404
-6460.97
-92.3419
-6436.93
-97.0605
-6411.75
-101.598
-6385.49
-105.959
-6358.19
-110.145
-6329.89
-114.159
-6300.63
-118.005
-6270.47
-121.686
-6239.43
-125.204
-6207.55
-128.564
-6174.88
-131.768
-6141.46
-134.82
-6107.31
-137.724
-6072.48
-140.482
-6037.01
-143.098
-6000.92
-145.576
-5964.25
-147.919
-5927.03
-150.129
-5889.3
-152.212
-5851.08
-154.17
-5812.42
-156.006
-5773.32
-157.724
-5733.84
-159.326
-5693.98
-160.818
-5653.79
-162.201
-5613.28
-163.478
-5572.49
-164.654
-5531.43
-165.731
-5490.13
-166.712
-5448.61
-167.601
-5406.9
-168.4
-5365.01
-169.112
-5322.98
-169.74
-5280.81
-170.287
-5238.53
-170.757
-5196.16
-171.15
-5153.71
-171.471
-5111.2
-171.722
-5068.65
-171.906
-5026.08
-172.024
-4983.5
-172.08
-4940.92
-172.076
-4898.36
-172.014
-4855.84
-171.896
-4813.37
-171.726
-4770.95
-171.504
-4728.61
-171.234
-4686.35
-170.916
-4644.19
-170.554
-4602.13
-170.149
-4560.18
-169.703
-4518.37
-169.219
-4476.68
-168.696
-4435.15
-168.139
-4393.76
-167.547
-4352.53
-166.924
-4311.47
-166.27
-4270.59
-165.587
-4229.88
-164.876
-4189.37
-164.14
-4149.04
-163.379
-4108.92
-162.595
-4069
-161.788
-4029.29
-160.962
-3989.8
-160.116
-3950.53
-159.251
-3911.47
-158.37
-3872.65
-157.473
-3834.05
-156.561
-3795.69
-155.635
-3757.57
-154.697
-3719.68
-153.747
-3682.04
-152.787
-3644.63
-151.816
-3607.48
-150.836
-3570.57
-149.849
-3533.91
-148.854
-3497.51
-147.853
-3461.35
-146.845
-3425.45
-145.833
-3389.8
-144.817
-3354.4
-143.796
-3319.26
-142.773
-3284.38
-141.748
-3249.75
-140.72
-3215.38
-139.692
-3181.26
-138.663
-3147.39
-137.633
-3113.79
-136.604
-3080.43
-135.576
-3047.33
-134.549
-3014.48
-133.523
-2981.89
-132.5
-2949.55
-131.479
-2917.45
-130.461
-2885.61
-129.447
-2854.01
-128.435
-2822.67
-127.428
-2791.57
-126.425
-2760.71
-125.426
-2730.09
-124.432
-2699.72
-123.443
-2669.59
-122.459
-2639.7
-121.481
-2610.04
-120.508
-2580.62
-119.542
-2551.43
-118.581
-2522.47
-117.627
-2493.74
-116.679
-2465.24
-115.738
-2436.96
-114.803
-2408.91
-113.876
-2381.08
-112.955
-2353.47
-112.042
-2326.07
-111.136
-2298.89
-110.238
-2271.92
-109.347
-2245.17
-108.464
-2218.62
-107.589
-2192.27
-106.721
-2166.13
-105.862
-2140.19
-105.01
-2114.44
-104.167
-2088.9
-103.332
-2063.54
-102.505
-2038.38
-101.686
-2013.41
-100.876
-1988.62
-100.074
-1964.01
-99.2804
-1939.59
-98.4954
-1915.35
-97.719
-1891.28
-96.9511
-1867.39
-96.1918
-1843.67
-95.4411
-1820.12
-94.6991
-1796.73
-93.9657
-1773.51
-93.2409
-1750.46
-92.5248
-1727.56
-91.8174
-1704.82
-91.1187
-1682.24
-90.4286
-1659.81
-89.7472
-1637.53
-89.0745
-1615.4
-88.4104
-1593.41
-87.7549
-1571.57
-87.1081
-1549.87
-86.4699
-1528.31
-85.8402
-1506.89
-85.2192
-1485.6
-84.6067
-1464.44
-84.0027
-1443.42
-83.4072
-1422.52
-82.8203
-1401.75
-82.2417
-1381.1
-81.6716
-1360.58
-81.1099
-1340.17
-80.5565
-1319.88
-80.0115
-1299.71
-79.4748
-1279.65
-78.9463
-1259.7
-78.4261
-1239.86
-77.914
-1220.13
-77.4102
-1200.5
-76.9144
-1180.98
-76.4268
-1161.55
-75.9472
-1142.23
-75.4756
-1123
-75.012
-1103.87
-74.5564
-1084.83
-74.1087
-1065.88
-73.6688
-1047.02
-73.2368
-1028.25
-72.8126
-1009.57
-72.3962
-990.963
-71.9874
-972.442
-71.5864
-954.001
-71.193
-935.638
-70.8073
-917.352
-70.4291
-899.14
-70.0585
-881.001
-69.6954
-862.932
-69.3397
-844.934
-68.9916
-827.002
-68.6508
-809.137
-68.3174
-791.335
-67.9913
-773.596
-67.6726
-755.918
-67.3611
-738.3
-67.0569
-720.738
-66.7599
-703.233
-66.4701
-685.783
-66.1875
-668.385
-65.912
-651.038
-65.6436
-633.741
-65.3822
-616.493
-65.128
-599.291
-64.8807
-582.135
-64.6405
-565.023
-64.4072
-547.953
-64.1809
-530.924
-63.9615
-513.935
-63.749
-496.984
-63.5434
-480.071
-63.3447
-463.192
-63.1528
-446.349
-62.9678
-429.538
-62.7895
-412.759
-62.6181
-396.01
-62.4534
-379.291
-62.2956
-362.599
-62.1444
-345.934
-62
-329.295
-61.8622
-312.68
-61.7312
-296.088
-61.6069
-279.519
-61.4892
-262.969
-61.3781
-246.44
-61.2737
-229.928
-61.1759
-213.434
-61.0847
-196.956
-61.0001
-180.492
-60.922
-164.042
-60.8505
-147.605
-60.7856
-131.178
-60.7272
-114.762
-60.6753
-98.3537
-60.6299
-81.9532
-60.591
-65.5591
-60.5587
-49.1698
-60.5332
-32.7838
-60.5161
-16.3973
-60.5148
-60.5494
-152.71
778.999
-305.228
779.076
-457.687
779.305
-610.18
779.12
-762.544
778.188
-914.588
777.071
-1066.13
775.172
-1217.25
772.731
-1367.99
770.091
-1518.23
767.316
-1667.86
763.854
-1816.89
759.56
-1965.24
754.823
-2112.7
749.685
-2259.33
744.116
-2405.28
737.423
-2550.45
730.571
-2694.58
724.366
-2837.44
717.731
-2978.89
709.71
-3118.93
700.984
-3258
691.751
-3396.26
681.445
-3533.16
671.095
-3668.11
660.777
-3801.14
648.984
-3932.53
635.541
-4062.2
621.696
-4189.58
608.088
-4314.02
594.402
-4435.15
579.515
-4552.78
562.579
-4666.8
545.801
-4777.1
530.605
-4883.41
515.057
-4985.53
498.486
-5083.77
482.193
-5178.61
466.995
-5269.87
451.231
-5357.74
435.804
-5442.57
420.972
-5524.12
405.677
-5602.33
390.166
-5677.49
375.168
-5749.65
360.232
-5818.79
345.266
-5884.96
330.452
-5948.12
315.59
-6008.34
300.926
-6065.63
286.318
-6120
271.809
-6171.5
257.451
-6220.12
243.195
-6265.94
229.147
-6308.96
215.225
-6349.24
201.528
-6386.8
187.979
-6421.71
174.669
-6453.98
161.524
-6483.68
148.625
-6510.83
135.906
-6535.49
123.434
-6557.69
111.16
-6577.49
99.1349
-6594.93
87.3227
-6610.06
75.7605
-6622.93
64.4258
-6633.58
53.3427
-6642.07
42.4984
-6648.44
31.9078
-6652.74
21.5637
-6655.03
11.4753
-6655.36
1.63813
-6653.78
-7.94224
-6650.34
-17.2693
-6645.08
-26.3394
-6638.08
-35.1561
-6629.36
-43.717
-6618.99
-52.0258
-6607.02
-60.0813
-6593.49
-67.8874
-6578.46
-75.444
-6561.97
-82.7549
-6544.08
-89.821
-6524.83
-96.6464
-6504.27
-103.233
-6482.45
-109.584
-6459.42
-115.702
-6435.21
-121.591
-6409.88
-127.255
-6383.47
-132.697
-6356.03
-137.92
-6327.59
-142.929
-6298.2
-147.727
-6267.9
-152.319
-6236.73
-156.708
-6204.73
-160.899
-6171.94
-164.896
-6138.4
-168.703
-6104.14
-172.323
-6069.2
-175.762
-6033.62
-179.024
-5997.43
-182.113
-5960.67
-185.033
-5923.36
-187.789
-5885.54
-190.384
-5847.24
-192.823
-5808.49
-195.11
-5769.33
-197.25
-5729.77
-199.246
-5689.84
-201.103
-5649.58
-202.825
-5609.01
-204.415
-5568.16
-205.878
-5527.04
-207.218
-5485.69
-208.438
-5444.12
-209.542
-5402.37
-210.534
-5360.44
-211.418
-5318.36
-212.198
-5276.16
-212.876
-5233.84
-213.457
-5191.44
-213.944
-5148.96
-214.34
-5106.43
-214.649
-5063.86
-214.873
-5021.26
-215.016
-4978.66
-215.081
-4936.07
-215.072
-4893.5
-214.99
-4850.97
-214.839
-4808.48
-214.622
-4766.06
-214.341
-4723.71
-213.999
-4681.45
-213.599
-4639.28
-213.143
-4597.22
-212.633
-4555.28
-212.073
-4513.47
-211.464
-4471.79
-210.808
-4430.26
-210.109
-4388.88
-209.367
-4347.66
-208.585
-4306.61
-207.765
-4265.74
-206.909
-4225.05
-206.018
-4184.55
-205.096
-4144.24
-204.142
-4104.14
-203.16
-4064.24
-202.15
-4024.55
-201.115
-3985.07
-200.056
-3945.82
-198.974
-3906.79
-197.871
-3867.99
-196.748
-3829.42
-195.607
-3791.08
-194.449
-3752.98
-193.275
-3715.12
-192.087
-3677.5
-190.885
-3640.13
-189.671
-3603
-188.446
-3566.12
-187.21
-3529.49
-185.966
-3493.12
-184.714
-3456.99
-183.454
-3421.12
-182.188
-3385.5
-180.917
-3350.14
-179.642
-3315.03
-178.362
-3280.18
-177.08
-3245.58
-175.795
-3211.24
-174.51
-3177.15
-173.223
-3143.32
-171.936
-3109.75
-170.649
-3076.43
-169.364
-3043.36
-168.08
-3010.55
-166.798
-2977.99
-165.519
-2945.68
-164.243
-2913.62
-162.971
-2881.81
-161.703
-2850.25
-160.439
-2818.94
-159.18
-2787.87
-157.926
-2757.05
-156.678
-2726.47
-155.436
-2696.13
-154.2
-2666.03
-152.97
-2636.17
-151.748
-2606.55
-150.532
-2577.16
-149.324
-2548.01
-148.124
-2519.09
-146.931
-2490.39
-145.747
-2461.93
-144.571
-2433.69
-143.403
-2405.67
-142.244
-2377.87
-141.094
-2350.29
-139.953
-2322.93
-138.821
-2295.78
-137.699
-2268.85
-136.586
-2242.13
-135.482
-2215.61
-134.389
-2189.3
-133.305
-2163.19
-132.231
-2137.28
-131.167
-2111.57
-130.113
-2086.06
-129.07
-2060.74
-128.037
-2035.61
-127.014
-2010.66
-126.001
-1985.91
-125
-1961.34
-124.008
-1936.95
-123.028
-1912.74
-122.058
-1888.7
-121.098
-1864.84
-120.15
-1841.15
-119.212
-1817.63
-118.285
-1794.28
-117.369
-1771.09
-116.463
-1748.07
-115.569
-1725.2
-114.685
-1702.49
-113.812
-1679.94
-112.95
-1657.54
-112.099
-1635.29
-111.258
-1613.19
-110.429
-1591.23
-109.61
-1569.42
-108.802
-1547.75
-108.005
-1526.22
-107.218
-1504.83
-106.442
-1483.57
-105.677
-1462.44
-104.923
-1441.44
-104.179
-1420.57
-103.446
-1399.83
-102.723
-1379.21
-102.011
-1358.72
-101.309
-1338.34
-100.618
-1318.08
-99.937
-1297.93
-99.2665
-1277.9
-98.6064
-1257.98
-97.9565
-1238.17
-97.3169
-1218.46
-96.6875
-1198.86
-96.0683
-1179.36
-95.4592
-1159.97
-94.8601
-1140.67
-94.271
-1121.47
-93.692
-1102.36
-93.1228
-1083.35
-92.5636
-1064.43
-92.0141
-1045.59
-91.4745
-1026.85
-90.9446
-1008.19
-90.4244
-989.61
-89.9139
-971.115
-89.4129
-952.7
-88.9216
-934.362
-88.4397
-916.101
-87.9673
-897.914
-87.5044
-879.8
-87.0508
-861.756
-86.6066
-843.782
-86.1717
-825.875
-85.746
-808.034
-85.3296
-790.258
-84.9223
-772.543
-84.5242
-754.889
-84.1351
-737.295
-83.7551
-719.757
-83.3842
-702.276
-83.0222
-684.849
-82.6691
-667.475
-82.325
-650.153
-81.9897
-632.88
-81.6633
-615.655
-81.3457
-598.477
-81.0368
-581.344
-80.7367
-564.255
-80.4454
-547.208
-80.1627
-530.203
-79.8886
-513.237
-79.6232
-496.309
-79.3664
-479.419
-79.1182
-462.564
-78.8785
-445.743
-78.6474
-428.955
-78.4248
-412.198
-78.2106
-395.473
-78.005
-378.776
-77.8077
-362.107
-77.6189
-345.465
-77.4385
-328.849
-77.2665
-312.256
-77.1028
-295.687
-76.9475
-279.14
-76.8005
-262.613
-76.6618
-246.106
-76.5314
-229.617
-76.4092
-213.145
-76.2953
-196.689
-76.1896
-180.248
-76.0921
-163.82
-76.0028
-147.405
-75.9217
-131.001
-75.8487
-114.606
-75.7839
-98.2202
-75.7272
-81.8418
-75.6787
-65.4695
-75.6383
-49.102
-75.6065
-32.7375
-75.5853
-16.3725
-75.5838
-75.6255
-151.243
929.9
-302.141
929.631
-452.649
929.466
-603.07
929.191
-753.446
928.218
-903.415
926.69
-1052.99
924.397
-1202.41
921.808
-1351.55
918.892
-1500.1
915.517
-1647.95
911.349
-1795.28
906.545
-1942
901.192
-2087.69
895.027
-2232.42
888.489
-2376.43
881.068
-2519.69
873.473
-2662.02
866.345
-2803.31
858.658
-2943.51
849.557
-3082.56
839.679
-3220.55
829.385
-3357.6
818.147
-3493.37
806.518
-3627.25
794.304
-3759.37
780.773
-3890.4
766.24
-4020.2
751.19
-4148.24
735.83
-4274.18
720.073
-4397.88
702.969
-4519.47
683.959
-4638.54
664.691
-4754.17
646.096
-4866.1
626.869
-4974.09
606.387
-5077.68
585.711
-5176.74
565.948
-5271.01
545.385
-5361.12
525.756
-5447.68
507.349
-5530.39
488.171
-5609.23
468.767
-5684.76
450.445
-5757.1
432.3
-5826.25
414.133
-5892.35
396.266
-5955.39
378.329
-6015.46
360.707
-6072.59
343.155
-6126.78
325.698
-6178.07
308.447
-6226.48
291.308
-6272.07
274.437
-6314.86
257.716
-6354.9
241.271
-6392.22
225.003
-6426.88
209.029
-6458.9
193.25
-6488.35
177.77
-6515.25
162.506
-6539.65
147.54
-6561.61
132.809
-6581.15
118.379