/*--------------------------------*- C++ -*----------------------------------*\
| =========                 |                                                 |
| \\      /  F ield         | OpenFOAM: The Open Source CFD Toolbox           |
|  \\    /   O peration     | Version:  2212                                  |
|   \\  /    A nd           | Website:  www.openfoam.com                      |
|    \\/     M anipulation  |                                                 |
\*---------------------------------------------------------------------------*/
FoamFile
{
    version     2.0;
    format      ascii;
    arch        "LSB;label=32;scalar=64";
    class       volScalarField;
    location    "50";
    object      p_rgh_0;
}
// * * * * * * * * * * * * * * * * * * * * * * * * * * * * * * * * * * * * * //

dimensions      [1 -1 -2 0 0 0 0];

internalField   nonuniform List<scalar> 
204800
(
-16.3116
-16.3043
-16.2891
-16.266
-16.235
-16.1964
-16.15
-16.0959
-16.0341
-15.9647
-15.8877
-15.8032
-15.7111
-15.6116
-15.5047
-15.3906
-15.2693
-15.141
-15.0057
-14.8634
-14.7143
-14.5584
-14.3958
-14.2268
-14.0513
-13.8696
-13.6816
-13.4876
-13.2876
-13.0818
-12.8703
-12.6533
-12.4308
-12.203
-11.97
-11.732
-11.4891
-11.2414
-10.9891
-10.7322
-10.471
-10.2055
-9.936
-9.66248
-9.38513
-9.10409
-8.81949
-8.53148
-8.24018
-7.94573
-7.64826
-7.34792
-7.04483
-6.73913
-6.43094
-6.1204
-5.80764
-5.49278
-5.17596
-4.85728
-4.53689
-4.2149
-3.89143
-3.56659
-3.24051
-2.9133
-2.58507
-2.25593
-1.92599
-1.59536
-1.26414
-0.93243
-0.600336
-0.267955
0.0646196
0.397292
0.729973
1.06257
1.395
1.72718
2.05902
2.39045
2.72138
3.05175
3.38147
3.71048
4.0387
4.36608
4.69255
5.01804
5.3425
5.66586
5.98808
6.30909
6.62886
6.94732
7.26443
7.58014
7.89442
8.20721
8.51849
8.82821
9.13633
9.44283
9.74767
10.0508
10.3522
10.6519
10.9498
11.2459
11.5402
11.8326
12.1232
12.4119
12.6987
12.9836
13.2665
13.5475
13.8266
14.1037
14.3788
14.6519
14.9231
15.1922
15.4593
15.7245
15.9876
16.2487
16.5078
16.7649
17.0199
17.273
17.524
17.7731
18.0201
18.2651
18.5081
18.7491
18.9881
19.2252
19.4602
19.6933
19.9245
20.1536
20.3809
20.6061
20.8295
21.0509
21.2704
21.4881
21.7038
21.9176
22.1296
22.3397
22.5479
22.7543
22.9589
23.1617
23.3626
23.5618
23.7592
23.9548
24.1486
24.3407
24.531
24.7197
24.9066
25.0918
25.2753
25.4571
25.6373
25.8158
25.9927
26.1679
26.3415
26.5135
26.6839
26.8527
27.0199
27.1856
27.3497
27.5123
27.6734
27.8329
27.9909
28.1474
28.3025
28.456
28.6081
28.7587
28.9079
29.0557
29.202
29.3469
29.4904
29.6325
29.7732
29.9126
30.0506
30.1872
30.3225
30.4564
30.589
30.7203
30.8503
30.979
31.1063
31.2324
31.3572
31.4808
31.603
31.724
31.8438
31.9623
32.0796
32.1957
32.3105
32.4242
32.5366
32.6478
32.7579
32.8667
32.9744
33.0809
33.1862
33.2903
33.3933
33.4952
33.5959
33.6954
33.7938
33.8911
33.9873
34.0823
34.1762
34.269
34.3606
34.4512
34.5406
34.6289
34.7162
34.8023
34.8874
34.9713
35.0541
35.1359
35.2165
35.2961
35.3746
35.452
35.5283
35.6036
35.6777
35.7508
35.8227
35.8936
35.9635
36.0322
36.0999
36.1664
36.2319
36.2963
36.3597
36.4219
36.4831
36.5432
36.6022
36.6601
36.7169
36.7727
36.8274
36.881
36.9334
36.9849
37.0352
37.0844
37.1326
37.1796
37.2256
37.2705
37.3143
37.357
37.3986
37.4391
37.4785
37.5169
37.5541
37.5903
37.6253
37.6593
37.6922
37.724
37.7546
37.7842
37.8127
37.8401
37.8665
37.8917
37.9158
37.9388
37.9607
37.9816
38.0013
38.02
38.0375
38.054
38.0693
38.0836
38.0967
38.1088
38.1198
38.1297
38.1384
38.1461
38.1527
38.1582
38.1626
38.1659
38.1681
38.1692
-16.2628
-16.2554
-16.2403
-16.2174
-16.187
-16.1489
-16.1032
-16.05
-15.9892
-15.9209
-15.8451
-15.7619
-15.6712
-15.5732
-15.4678
-15.3552
-15.2354
-15.1084
-14.9744
-14.8334
-14.6855
-14.5308
-14.3694
-14.2014
-14.0269
-13.8459
-13.6588
-13.4654
-13.2661
-13.0609
-12.8499
-12.6334
-12.4113
-12.184
-11.9514
-11.7138
-11.4713
-11.2239
-10.972
-10.7155
-10.4547
-10.1896
-9.92044
-9.64732
-9.37037
-9.08974
-8.80556
-8.51796
-8.22709
-7.93308
-7.63607
-7.33618
-7.03354
-6.72831
-6.42059
-6.11053
-5.79826
-5.48389
-5.16756
-4.84939
-4.52951
-4.20803
-3.88507
-3.56076
-3.23521
-2.90853
-2.58083
-2.25224
-1.92284
-1.59276
-1.26209
-0.930938
-0.599402
-0.267582
0.0644281
0.396534
0.728646
1.06067
1.39253
1.72413
2.0554
2.38625
2.7166
3.04638
3.37552
3.70395
4.03159
4.35839
4.68427
5.00918
5.33305
5.65583
5.97746
6.29789
6.61707
6.93495
7.25147
7.56661
7.8803
8.19252
8.50322
8.81236
9.11991
9.42583
9.7301
10.0327
10.3335
10.6326
10.93
11.2255
11.5192
11.8111
12.1011
12.3893
12.6755
12.9598
13.2423
13.5227
13.8012
14.0778
14.3524
14.625
14.8956
15.1642
15.4308
15.6954
15.958
16.2186
16.4772
16.7338
16.9883
17.2409
17.4914
17.7399
17.9865
18.231
18.4735
18.7141
18.9526
19.1892
19.4238
19.6564
19.8871
20.1158
20.3425
20.5674
20.7903
21.0113
21.2303
21.4475
21.6628
21.8762
22.0877
22.2974
22.5052
22.7112
22.9154
23.1178
23.3183
23.5171
23.714
23.9092
24.1027
24.2944
24.4843
24.6726
24.8591
25.0439
25.2271
25.4085
25.5883
25.7665
25.943
26.1178
26.2911
26.4627
26.6328
26.8013
26.9682
27.1335
27.2973
27.4595
27.6202
27.7794
27.9371
28.0933
28.248
28.4013
28.5531
28.7034
28.8523
28.9997
29.1457
29.2903
29.4336
29.5754
29.7158
29.8549
29.9926
30.1289
30.2639
30.3976
30.5299
30.6609
30.7906
30.919
31.0462
31.172
31.2965
31.4198
31.5418
31.6626
31.7821
31.9004
32.0175
32.1333
32.2479
32.3613
32.4735
32.5845
32.6943
32.8029
32.9104
33.0166
33.1217
33.2257
33.3285
33.4301
33.5306
33.6299
33.7281
33.8252
33.9212
34.016
34.1097
34.2023
34.2938
34.3841
34.4734
34.5616
34.6486
34.7346
34.8194
34.9032
34.9859
35.0675
35.148
35.2274
35.3057
35.3829
35.4591
35.5342
35.6082
35.6811
35.7529
35.8237
35.8933
35.9619
36.0295
36.0959
36.1613
36.2255
36.2888
36.3509
36.4119
36.4719
36.5308
36.5886
36.6453
36.7009
36.7555
36.809
36.8614
36.9127
36.9629
37.012
37.0601
37.107
37.1529
37.1977
37.2414
37.284
37.3256
37.366
37.4053
37.4436
37.4808
37.5169
37.5518
37.5857
37.6185
37.6503
37.6809
37.7104
37.7389
37.7662
37.7925
37.8176
37.8417
37.8647
37.8866
37.9074
37.9271
37.9457
37.9632
37.9796
37.9949
38.0092
38.0223
38.0343
38.0453
38.0551
38.0639
38.0716
38.0781
38.0836
38.088
38.0913
38.0935
38.0946
-16.259
-16.2514
-16.2363
-16.2136
-16.1832
-16.1453
-16.0999
-16.0469
-15.9864
-15.9184
-15.843
-15.7602
-15.6699
-15.5723
-15.4674
-15.3553
-15.236
-15.1095
-14.9761
-14.8356
-14.6882
-14.534
-14.373
-14.2055
-14.0313
-13.8508
-13.6639
-13.4708
-13.2717
-13.0666
-12.8557
-12.6392
-12.4172
-12.1898
-11.9571
-11.7194
-11.4767
-11.2292
-10.9771
-10.7205
-10.4595
-10.1942
-9.92483
-9.65152
-9.37438
-9.09355
-8.80918
-8.5214
-8.23035
-7.93616
-7.63897
-7.3389
-7.03611
-6.7307
-6.42283
-6.11262
-5.80019
-5.48568
-5.16921
-4.8509
-4.53088
-4.20928
-3.8862
-3.56177
-3.23611
-2.90932
-2.58153
-2.25283
-1.92334
-1.59317
-1.26242
-0.931194
-0.599587
-0.267699
0.0643736
0.396537
0.728702
1.06078
1.39268
1.72432
2.05562
2.38649
2.71687
3.04668
3.37583
3.70427
4.03192
4.35872
4.6846
5.0095
5.33337
5.65613
5.97775
6.29816
6.61731
6.93516
7.25166
7.56676
7.88042
8.1926
8.50325
8.81235
9.11985
9.42572
9.72993
10.0324
10.3332
10.6323
10.9296
11.225
11.5187
11.8105
12.1004
12.3885
12.6747
12.9589
13.2413
13.5216
13.8001
14.0765
14.351
14.6236
14.8941
15.1626
15.4291
15.6937
15.9562
16.2167
16.4752
16.7316
16.9861
17.2386
17.489
17.7374
17.9839
18.2283
18.4707
18.7112
18.9496
19.1861
19.4206
19.6531
19.8837
20.1123
20.339
20.5637
20.7865
21.0074
21.2264
21.4434
21.6586
21.8719
22.0834
22.293
22.5007
22.7066
22.9106
23.1129
23.3134
23.512
23.7089
23.904
24.0973
24.2889
24.4788
24.667
24.8534
25.0381
25.2212
25.4025
25.5822
25.7603
25.9367
26.1115
26.2847
26.4562
26.6262
26.7946
26.9614
27.1266
27.2903
27.4525
27.6131
27.7722
27.9298
28.0859
28.2406
28.3937
28.5454
28.6957
28.8445
28.9918
29.1378
29.2823
29.4255
29.5672
29.7076
29.8465
29.9842
30.1204
30.2554
30.3889
30.5212
30.6522
30.7818
30.9101
31.0372
31.1629
31.2874
31.4106
31.5326
31.6533
31.7727
31.8909
32.0079
32.1237
32.2382
32.3516
32.4637
32.5746
32.6844
32.7929
32.9003
33.0065
33.1116
33.2155
33.3182
33.4198
33.5202
33.6195
33.7177
33.8147
33.9106
34.0053
34.099
34.1915
34.283
34.3733
34.4625
34.5506
34.6376
34.7235
34.8083
34.892
34.9747
35.0562
35.1366
35.216
35.2943
35.3715
35.4476
35.5226
35.5966
35.6695
35.7413
35.812
35.8816
35.9502
36.0177
36.0841
36.1494
36.2136
36.2768
36.3389
36.3999
36.4598
36.5187
36.5764
36.6331
36.6887
36.7433
36.7967
36.8491
36.9003
36.9505
36.9996
37.0477
37.0946
37.1405
37.1852
37.2289
37.2715
37.313
37.3534
37.3927
37.431
37.4681
37.5042
37.5391
37.573
37.6058
37.6375
37.6681
37.6976
37.7261
37.7534
37.7796
37.8048
37.8288
37.8518
37.8737
37.8945
37.9142
37.9327
37.9502
37.9667
37.982
37.9962
38.0093
38.0214
38.0323
38.0422
38.0509
38.0586
38.0651
38.0706
38.075
38.0783
38.0805
38.0815
-16.2172
-16.2097
-16.1948
-16.1724
-16.1426
-16.1053
-16.0606
-16.0084
-15.9489
-15.882
-15.8078
-15.7262
-15.6373
-15.5412
-15.4378
-15.3273
-15.2096
-15.0847
-14.9529
-14.814
-14.6682
-14.5156
-14.3562
-14.1901
-14.0174
-13.8381
-13.6524
-13.4605
-13.2624
-13.0582
-12.8481
-12.6322
-12.4107
-12.1838
-11.9515
-11.7141
-11.4716
-11.2243
-10.9723
-10.7158
-10.4548
-10.1896
-9.92031
-9.64703
-9.36993
-9.08914
-8.80482
-8.51709
-8.22609
-7.93196
-7.63484
-7.33486
-7.03215
-6.72685
-6.41908
-6.10899
-5.79668
-5.48231
-5.16598
-4.84783
-4.52798
-4.20655
-3.88365
-3.55942
-3.23395
-2.90737
-2.57979
-2.25132
-1.92207
-1.59214
-1.26164
-0.930665
-0.599322
-0.267708
0.0640846
0.395961
0.72783
1.0596
1.39119
1.72252
2.0535
2.38404
2.71409
3.04355
3.37236
3.70045
4.02774
4.35417
4.67969
5.00422
5.3277
5.65009
5.97132
6.29134
6.6101
6.92755
7.24364
7.55834
7.87159
8.18336
8.4936
8.80228
9.10936
9.41481
9.7186
10.0207
10.3211
10.6197
10.9165
11.2116
11.5048
11.7962
12.0857
12.3733
12.659
12.9429
13.2247
13.5047
13.7827
14.0587
14.3328
14.6049
14.8749
15.143
15.4091
15.6732
15.9353
16.1954
16.4534
16.7095
16.9635
17.2156
17.4656
17.7136
17.9596
18.2036
18.4456
18.6856
18.9237
19.1597
19.3938
19.6259
19.8561
20.0843
20.3106
20.5349
20.7573
20.9778
21.1964
21.413
21.6278
21.8408
22.0518
22.261
22.4684
22.6739
22.8776
23.0795
23.2795
23.4778
23.6743
23.8691
24.0621
24.2533
24.4428
24.6306
24.8167
25.0011
25.1838
25.3648
25.5442
25.7219
25.898
26.0724
26.2453
26.4165
26.5862
26.7542
26.9207
27.0856
27.249
27.4109
27.5712
27.73
27.8873
28.0431
28.1975
28.3503
28.5017
28.6517
28.8002
28.9473
29.093
29.2372
29.3801
29.5216
29.6617
29.8004
29.9377
30.0737
30.2084
30.3417
30.4737
30.6044
30.7338
30.8619
30.9887
31.1142
31.2385
31.3614
31.4832
31.6036
31.7229
31.8408
31.9576
32.0731
32.1875
32.3006
32.4125
32.5232
32.6328
32.7411
32.8483
32.9543
33.0592
33.1628
33.2654
33.3668
33.467
33.5661
33.6641
33.7609
33.8566
33.9512
34.0447
34.137
34.2283
34.3184
34.4075
34.4954
34.5823
34.668
34.7527
34.8362
34.9187
35.0001
35.0804
35.1596
35.2377
35.3148
35.3907
35.4656
35.5395
35.6122
35.6838
35.7544
35.8239
35.8924
35.9597
36.026
36.0912
36.1553
36.2184
36.2803
36.3412
36.4011
36.4598
36.5175
36.574
36.6295
36.684
36.7373
36.7896
36.8408
36.8909
36.9399
36.9878
37.0347
37.0804
37.1251
37.1687
37.2112
37.2526
37.293
37.3322
37.3704
37.4075
37.4435
37.4784
37.5122
37.5449
37.5766
37.6071
37.6366
37.6649
37.6922
37.7184
37.7435
37.7675
37.7905
37.8123
37.833
37.8527
37.8712
37.8887
37.9051
37.9204
37.9346
37.9477
37.9597
37.9706
37.9805
37.9892
37.9968
38.0034
38.0089
38.0132
38.0165
38.0187
38.0198
-16.2008
-16.1934
-16.1785
-16.1563
-16.1267
-16.0897
-16.0454
-15.9937
-15.9347
-15.8684
-15.7948
-15.7139
-15.6258
-15.5305
-15.428
-15.3184
-15.2017
-15.078
-14.9473
-14.8096
-14.665
-14.5137
-14.3556
-14.1907
-14.0193
-13.8413
-13.6568
-13.466
-13.269
-13.0658
-12.8565
-12.6414
-12.4206
-12.1941
-11.9622
-11.725
-11.4827
-11.2354
-10.9833
-10.7266
-10.4654
-10.1999
-9.93025
-9.65661
-9.37913
-9.09796
-8.81324
-8.52511
-8.23371
-7.93919
-7.64168
-7.34131
-7.03822
-6.73255
-6.42443
-6.11398
-5.80133
-5.48662
-5.16997
-4.85151
-4.53135
-4.20962
-3.88643
-3.56192
-3.23618
-2.90935
-2.58152
-2.25281
-1.92333
-1.59318
-1.26247
-0.931294
-0.599761
-0.267966
0.0639962
0.396033
0.728053
1.05997
1.39169
1.72314
2.05423
2.38488
2.71502
3.04457
3.37345
3.70161
4.02896
4.35545
4.681
5.00557
5.32908
5.65149
5.97273
6.29275
6.61151
6.92895
7.24503
7.5597
7.87292
8.18465
8.49485
8.80348
9.11051
9.4159
9.71962
10.0216
10.3219
10.6205
10.9172
11.2122
11.5053
11.7966
12.086
12.3735
12.6591
12.9428
13.2246
13.5044
13.7823
14.0582
14.3321
14.6041
14.874
15.142
15.4079
15.6719
15.9338
16.1937
16.4517
16.7076
16.9614
17.2133
17.4632
17.711
17.9569
18.2007
18.4426
18.6824
18.9203
19.1562
19.3901
19.6221
19.8521
20.0801
20.3062
20.5304
20.7526
20.9729
21.1914
21.4079
21.6225
21.8353
22.0461
22.2552
22.4624
22.6677
22.8712
23.073
23.2729
23.471
23.6673
23.8619
24.0547
24.2458
24.4352
24.6228
24.8087
24.993
25.1755
25.3564
25.5356
25.7131
25.8891
26.0634
26.236
26.4071
26.5766
26.7445
26.9109
27.0756
27.2389
27.4006
27.5608
27.7194
27.8766
28.0323
28.1865
28.3392
28.4904
28.6403
28.7886
28.9356
29.0811
29.2252
29.368
29.5093
29.6493
29.7878
29.9251
30.0609
30.1955
30.3287
30.4606
30.5911
30.7204
30.8484
30.975
31.1004
31.2246
31.3474
31.469
31.5894
31.7085
31.8264
31.943
32.0584
32.1726
32.2857
32.3975
32.5081
32.6175
32.7258
32.8328
32.9387
33.0435
33.1471
33.2495
33.3508
33.4509
33.5499
33.6478
33.7445
33.8402
33.9347
34.028
34.1203
34.2115
34.3015
34.3905
34.4783
34.5651
34.6507
34.7353
34.8188
34.9012
34.9825
35.0627
35.1418
35.2199
35.2969
35.3728
35.4476
35.5213
35.594
35.6656
35.7361
35.8055
35.8739
35.9412
36.0074
36.0725
36.1366
36.1996
36.2615
36.3223
36.3821
36.4408
36.4984
36.5549
36.6103
36.6647
36.718
36.7702
36.8213
36.8714
36.9204
36.9682
37.015
37.0608
37.1054
37.149
37.1914
37.2328
37.2731
37.3123
37.3505
37.3875
37.4235
37.4583
37.4921
37.5248
37.5564
37.5869
37.6164
37.6447
37.672
37.6981
37.7232
37.7472
37.7701
37.7919
37.8126
37.8323
37.8508
37.8683
37.8846
37.8999
37.9141
37.9272
37.9392
37.9501
37.9599
37.9686
37.9763
37.9828
37.9883
37.9926
37.9959
37.9981
37.9992
-16.1565
-16.1492
-16.1346
-16.1127
-16.0836
-16.0472
-16.0035
-15.9526
-15.8945
-15.8292
-15.7567
-15.677
-15.5902
-15.4963
-15.3953
-15.2873
-15.1722
-15.0502
-14.9212
-14.7854
-14.6427
-14.4932
-14.337
-14.1742
-14.0047
-13.8286
-13.6461
-13.4572
-13.262
-13.0605
-12.853
-12.6394
-12.42
-12.1948
-11.964
-11.7277
-11.4861
-11.2394
-10.9878
-10.7314
-10.4703
-10.2049
-9.93519
-9.66143
-9.38378
-9.10239
-8.81743
-8.52905
-8.23739
-7.9426
-7.64482
-7.3442
-7.04087
-6.73496
-6.42661
-6.11594
-5.8031
-5.4882
-5.17138
-4.85275
-4.53244
-4.21057
-3.88727
-3.56264
-3.23681
-2.90988
-2.58198
-2.25321
-1.92369
-1.5935
-1.26277
-0.931591
-0.600063
-0.268285
0.0636489
0.395644
0.727611
1.05946
1.39111
1.72247
2.05345
2.384
2.71401
3.04343
3.37217
3.70017
4.02736
4.35367
4.67904
5.00342
5.32673
5.64892
5.96994
6.28974
6.60826
6.92546
7.24128
7.55569
7.86865
8.1801
8.49002
8.79837
9.1051
9.41019
9.71361
10.0153
10.3153
10.6135
10.91
11.2046
11.4974
11.7883
12.0774
12.3646
12.6498
12.9332
13.2146
13.4941
13.7716
14.0471
14.3207
14.5923
14.8618
15.1294
15.395
15.6586
15.9201
16.1797
16.4372
16.6928
16.9463
17.1978
17.4472
17.6947
17.9402
18.1837
18.4251
18.6646
18.9021
19.1376
19.3712
19.6028
19.8324
20.06
20.2858
20.5096
20.7314
20.9514
21.1694
21.3856
21.5999
21.8122
22.0228
22.2314
22.4383
22.6433
22.8464
23.0478
23.2474
23.4451
23.6411
23.8354
24.0278
24.2186
24.4076
24.5949
24.7805
24.9644
25.1466
25.3271
25.506
25.6833
25.8589
26.0328
26.2052
26.376
26.5451
26.7127
26.8788
27.0432
27.2062
27.3676
27.5275
27.6858
27.8427
27.9981
28.152
28.3044
28.4554
28.6049
28.753
28.8997
29.045
29.1888
29.3313
29.4724
29.612
29.7504
29.8873
30.023
30.1573
30.2902
30.4218
30.5522
30.6812
30.8089
30.9353
31.0605
31.1844
31.307
31.4284
31.5485
31.6674
31.785
31.9015
32.0167
32.1307
32.2435
32.3551
32.4655
32.5747
32.6828
32.7896
32.8953
32.9999
33.1033
33.2055
33.3066
33.4066
33.5054
33.6031
33.6996
33.7951
33.8894
33.9826
34.0747
34.1657
34.2556
34.3443
34.432
34.5186
34.6041
34.6885
34.7719
34.8541
34.9353
35.0153
35.0943
35.1722
35.2491
35.3248
35.3995
35.4731
35.5456
35.6171
35.6875
35.7568
35.825
35.8922
35.9583
36.0233
36.0872
36.1501
36.2119
36.2726
36.3323
36.3908
36.4483
36.5048
36.5601
36.6144
36.6676
36.7197
36.7707
36.8207
36.8696
36.9174
36.9641
37.0097
37.0543
37.0978
37.1402
37.1815
37.2217
37.2608
37.2989
37.3359
37.3718
37.4066
37.4403
37.4729
37.5045
37.5349
37.5643
37.5926
37.6198
37.6459
37.671
37.6949
37.7178
37.7395
37.7602
37.7798
37.7983
37.8158
37.8321
37.8473
37.8615
37.8746
37.8865
37.8974
37.9072
37.916
37.9236
37.9301
37.9356
37.9399
37.9432
37.9454
37.9465
-16.1266
-16.1194
-16.1049
-16.0833
-16.0544
-16.0184
-15.9751
-15.9248
-15.8672
-15.8026
-15.7308
-15.6519
-15.566
-15.473
-15.373
-15.2661
-15.1522
-15.0314
-14.9038
-14.7694
-14.6282
-14.4803
-14.3258
-14.1646
-13.9968
-13.8226
-13.6419
-13.4549
-13.2615
-13.0619
-12.8562
-12.6444
-12.4266
-12.203
-11.9737
-11.7387
-11.4983
-11.2525
-11.0016
-10.7457
-10.485
-10.2197
-9.95001
-9.6761
-9.39816
-9.11639
-8.83097
-8.54207
-8.24985
-7.95448
-7.65611
-7.35489
-7.05096
-6.74446
-6.43553
-6.12429
-5.81089
-5.49544
-5.17809
-4.85894
-4.53812
-4.21576
-3.89198
-3.56689
-3.24061
-2.91325
-2.58493
-2.25575
-1.92583
-1.59527
-1.26417
-0.932647
-0.600786
-0.268689
0.0635478
0.395832
0.728073
1.06018
1.39207
1.72366
2.05487
2.38562
2.71582
3.04541
3.37432
3.70247
4.0298
4.35623
4.68172
5.00619
5.32958
5.65185
5.97294
6.29279
6.61135
6.92858
7.24442
7.55885
7.8718
8.18325
8.49315
8.80146
9.10816
9.4132
9.71657
10.0182
10.3181
10.6163
10.9126
11.2071
11.4998
11.7907
12.0796
12.3667
12.6518
12.935
13.2163
13.4957
13.773
14.0484
14.3218
14.5932
14.8626
15.1301
15.3955
15.6589
15.9202
16.1796
16.437
16.6923
16.9456
17.1969
17.4462
17.6935
17.9387
18.182
18.4233
18.6626
18.8998
19.1351
19.3685
19.5998
19.8292
20.0567
20.2822
20.5058
20.7274
20.9472
21.165
21.3809
21.595
21.8072
22.0175
22.2259
22.4325
22.6373
22.8402
23.0414
23.2407
23.4383
23.6341
23.8281
24.0204
24.2109
24.3997
24.5868
24.7721
24.9558
25.1378
25.3181
25.4968
25.6738
25.8492
26.023
26.1952
26.3657
26.5347
26.7021
26.8679
27.0322
27.1949
27.3561
27.5158
27.674
27.8307
27.9859
28.1396
28.2918
28.4426
28.592
28.7399
28.8864
29.0314
29.1751
29.3174
29.4583
29.5978
29.7359
29.8727
30.0082
30.1423
30.2751
30.4065
30.5367
30.6656
30.7931
30.9194
31.0444
31.1681
31.2906
31.4118
31.5318
31.6505
31.768
31.8843
31.9993
32.1132
32.2258
32.3373
32.4475
32.5566
32.6645
32.7713
32.8768
32.9812
33.0845
33.1866
33.2876
33.3874
33.4861
33.5836
33.6801
33.7754
33.8696
33.9627
34.0546
34.1455
34.2353
34.3239
34.4115
34.498
34.5834
34.6677
34.7509
34.833
34.9141
34.994
35.0729
35.1507
35.2275
35.3031
35.3777
35.4512
35.5237
35.595
35.6653
35.7345
35.8027
35.8698
35.9358
36.0007
36.0645
36.1273
36.1891
36.2497
36.3093
36.3678
36.4252
36.4815
36.5368
36.591
36.6441
36.6962
36.7472
36.797
36.8459
36.8936
36.9403
36.9858
37.0303
37.0738
37.1161
37.1573
37.1975
37.2366
37.2746
37.3115
37.3474
37.3822
37.4158
37.4484
37.4799
37.5104
37.5397
37.568
37.5951
37.6212
37.6462
37.6701
37.693
37.7147
37.7354
37.7549
37.7734
37.7908
37.8071
37.8223
37.8365
37.8495
37.8615
37.8724
37.8822
37.8909
37.8985
37.905
37.9105
37.9148
37.9181
37.9202
37.9213
-16.0766
-16.0695
-16.0552
-16.0339
-16.0054
-15.9699
-15.9273
-15.8776
-15.8208
-15.7571
-15.6863
-15.6085
-15.5238
-15.4321
-15.3334
-15.2279
-15.1156
-14.9964
-14.8705
-14.7378
-14.5984
-14.4524
-14.2998
-14.1406
-13.9749
-13.8027
-13.6242
-13.4393
-13.2482
-13.0509
-12.8474
-12.6378
-12.4223
-12.2008
-11.9735
-11.7405
-11.5019
-11.2579
-11.0085
-10.7539
-10.4943
-10.2298
-9.96076
-9.68725
-9.40951
-9.12776
-8.8422
-8.55303
-8.26046
-7.96466
-7.66581
-7.36408
-7.05963
-6.7526
-6.44314
-6.13139
-5.81748
-5.50155
-5.18371
-4.86411
-4.54285
-4.22007
-3.89587
-3.57039
-3.24374
-2.91602
-2.58736
-2.25786
-1.92764
-1.59679
-1.26543
-0.933646
-0.60155
-0.269237
0.0632007
0.395668
0.728076
1.06033
1.39236
1.72407
2.05537
2.3862
2.71648
3.04612
3.37506
3.70323
4.03057
4.357
4.68246
5.0069
5.33025
5.65245
5.97346
6.29322
6.61169
6.9288
7.24453
7.55881
7.87162
8.18291
8.49264
8.80078
9.10729
9.41214
9.7153
10.0167
10.3164
10.6143
10.9104
11.2047
11.4972
11.7877
12.0764
12.3632
12.6481
12.931
13.212
13.491
13.7681
14.0432
14.3163
14.5874
14.8565
15.1236
15.3887
15.6517
15.9128
16.1718
16.4288
16.6838
16.9368
17.1877
17.4367
17.6836
17.9285
18.1714
18.4124
18.6513
18.8882
19.1232
19.3561
19.5871
19.8162
20.0433
20.2684
20.4917
20.713
20.9323
21.1498
21.3654
21.5791
21.7909
22.0009
22.209
22.4152
22.6196
22.8222
23.023
23.222
23.4193
23.6147
23.8084
24.0003
24.1905
24.3789
24.5657
24.7507
24.9341
25.1158
25.2958
25.4741
25.6508
25.8259
25.9993
26.1712
26.3414
26.5101
26.6772
26.8427
27.0066
27.1691
27.33
27.4894
27.6472
27.8036
27.9585
28.1119
28.2639
28.4144
28.5635
28.7111
28.8573
29.0021
29.1455
29.2875
29.4281
29.5674
29.7053
29.8418
29.977
30.1108
30.2434
30.3746
30.5045
30.6331
30.7604
30.8864
31.0112
31.1347
31.2569
31.3779
31.4976
31.6161
31.7334
31.8495
31.9643
32.0779
32.1904
32.3016
32.4117
32.5205
32.6282
32.7347
32.8401
32.9443
33.0474
33.1493
33.2501
33.3497
33.4482
33.5456
33.6418
33.7369
33.831
33.9239
34.0157
34.1064
34.196
34.2845
34.3719
34.4582
34.5434
34.6276
34.7106
34.7926
34.8735
34.9533
35.032
35.1097
35.1863
35.2618
35.3362
35.4096
35.4819
35.5531
35.6233
35.6924
35.7604
35.8274
35.8932
35.958
36.0218
36.0845
36.1461
36.2066
36.266
36.3244
36.3818
36.438
36.4932
36.5473
36.6003
36.6522
36.7031
36.7529
36.8016
36.8493
36.8959
36.9414
36.9858
37.0291
37.0714
37.1126
37.1527
37.1917
37.2296
37.2665
37.3022
37.3369
37.3706
37.4031
37.4345
37.4649
37.4942
37.5224
37.5495
37.5756
37.6005
37.6244
37.6472
37.6689
37.6895
37.709
37.7275
37.7449
37.7611
37.7763
37.7904
37.8035
37.8154
37.8263
37.836
37.8447
37.8523
37.8588
37.8643
37.8686
37.8719
37.8741
37.8751
-16.0342
-16.0271
-16.013
-15.9919
-15.9637
-15.9286
-15.8864
-15.8372
-15.7811
-15.7179
-15.6479
-15.5709
-15.4871
-15.3963
-15.2988
-15.1944
-15.0832
-14.9654
-14.8408
-14.7095
-14.5717
-14.4272
-14.2763
-14.1188
-13.9549
-13.7847
-13.6081
-13.4252
-13.2362
-13.0409
-12.8396
-12.6322
-12.4189
-12.1996
-11.9745
-11.7437
-11.5072
-11.2652
-11.0177
-10.7649
-10.5068
-10.2438
-9.97583
-9.7032
-9.42607
-9.14468
-8.85923
-8.56996
-8.2771
-7.98085
-7.68144
-7.37905
-7.07388
-6.7661
-6.45587
-6.14334
-5.82866
-5.51196
-5.19337
-4.87303
-4.55105
-4.22756
-3.90268
-3.57653
-3.24923
-2.92088
-2.59161
-2.26152
-1.93073
-1.59933
-1.26743
-0.935139
-0.602551
-0.269764
0.063127
0.396028
0.72885
1.0615
1.3939
1.72597
2.05761
2.38876
2.71934
3.04926
3.37847
3.70689
4.03445
4.3611
4.68676
5.01137
5.33488
5.65724
5.97838
6.29826
6.61682
6.93402
7.24982
7.56417
7.87702
8.18834
8.49809
8.80624
9.11274
9.41757
9.7207
10.0221
10.3217
10.6196
10.9156
11.2098
11.5022
11.7926
12.0812
12.3679
12.6526
12.9354
13.2163
13.4952
13.7721
14.047
14.3199
14.5908
14.8598
15.1267
15.3915
15.6544
15.9153
16.1741
16.4309
16.6857
16.9384
17.1892
17.4379
17.6846
17.9292
18.1719
18.4126
18.6513
18.888
19.1227
19.3554
19.5862
19.815
20.0418
20.2667
20.4897
20.7107
20.9298
21.1471
21.3624
21.5758
21.7874
21.9971
22.2049
22.4109
22.615
22.8174
23.0179
23.2167
23.4136
23.6088
23.8022
23.9939
24.1838
24.372
24.5585
24.7433
24.9264
25.1078
25.2875
25.4656
25.6421
25.8169
25.9901
26.1617
26.3317
26.5001
26.6669
26.8322
26.996
27.1581
27.3188
27.478
27.6356
27.7917
27.9464
28.0996
28.2513
28.4016
28.5504
28.6978
28.8438
28.9884
29.1316
29.2734
29.4138
29.5528
29.6905
29.8268
29.9618
30.0954
30.2278
30.3588
30.4885
30.6169
30.744
30.8698
30.9944
31.1177
31.2397
31.3605
31.48
31.5984
31.7155
31.8313
31.946
32.0594
32.1717
32.2828
32.3926
32.5013
32.6089
32.7152
32.8204
32.9245
33.0274
33.1291
33.2297
33.3292
33.4275
33.5247
33.6208
33.7158
33.8097
33.9025
33.9941
34.0847
34.1741
34.2625
34.3498
34.4359
34.521
34.605
34.688
34.7698
34.8506
34.9303
35.0089
35.0864
35.1629
35.2383
35.3126
35.3859
35.458
35.5292
35.5992
35.6682
35.7361
35.8029
35.8687
35.9334
35.9971
36.0596
36.1211
36.1816
36.2409
36.2992
36.3565
36.4126
36.4677
36.5217
36.5747
36.6265
36.6773
36.7271
36.7757
36.8233
36.8698
36.9152
36.9596
37.0028
37.045
37.0861
37.1262
37.1651
37.203
37.2398
37.2755
37.3102
37.3437
37.3762
37.4076
37.4379
37.4672
37.4953
37.5224
37.5484
37.5733
37.5972
37.6199
37.6416
37.6622
37.6817
37.7001
37.7174
37.7337
37.7489
37.763
37.776
37.7879
37.7987
37.8085
37.8172
37.8248
37.8313
37.8367
37.841
37.8443
37.8464
37.8475
-15.9768
-15.9698
-15.9559
-15.9351
-15.9073
-15.8725
-15.8309
-15.7824
-15.7269
-15.6646
-15.5955
-15.5195
-15.4367
-15.3472
-15.2508
-15.1478
-15.038
-14.9216
-14.7986
-14.6689
-14.5328
-14.3901
-14.2409
-14.0854
-13.9234
-13.7552
-13.5807
-13.3999
-13.213
-13.0201
-12.821
-12.616
-12.405
-12.1881
-11.9655
-11.7371
-11.503
-11.2634
-11.0183
-10.7677
-10.5119
-10.2509
-9.98477
-9.71379
-9.43806
-9.1578
-8.8732
-8.58449
-8.29191
-7.9957
-7.69609
-7.39334
-7.08766
-6.77927
-6.46836
-6.15511
-5.83968
-5.52223
-5.20291
-4.88183
-4.55914
-4.23495
-3.9094
-3.58259
-3.25465
-2.92569
-2.59583
-2.26517
-1.93382
-1.6019
-1.2695
-0.936723
-0.603676
-0.270452
0.0628534
0.396147
0.72934
1.06234
1.39507
1.72744
2.05937
2.39078
2.7216
3.05175
3.38116
3.70977
4.03749
4.36428
4.69007
5.01479
5.33839
5.66082
5.98201
6.30193
6.62052
6.93773
7.25351
7.56783
7.88065
8.19191
8.5016
8.80966
9.11607
9.42079
9.7238
10.0251
10.3245
10.6222
10.9181
11.2121
11.5043
11.7946
12.0829
12.3694
12.6539
12.9365
13.2171
13.4957
13.7724
14.047
14.3197
14.5903
14.859
15.1256
15.3902
15.6528
15.9133
16.1718
16.4283
16.6828
16.9352
17.1856
17.434
17.6804
17.9247
18.1671
18.4074
18.6458
18.8821
19.1165
19.3488
19.5793
19.8077
20.0342
20.2588
20.4814
20.7021
20.9208
21.1377
21.3527
21.5657
21.7769
21.9863
22.1938
22.3994
22.6032
22.8052
23.0054
23.2038
23.4004
23.5952
23.7883
23.9796
24.1692
24.3571
24.5432
24.7276
24.9104
25.0915
25.2709
25.4487
25.6248
25.7993
25.9721
26.1434
26.3131
26.4812
26.6477
26.8127
26.9761
27.1379
27.2983
27.4571
27.6145
27.7703
27.9247
28.0776
28.229
28.379
28.5275
28.6746
28.8203
28.9646
29.1075
29.249
29.3891
29.5279
29.6653
29.8013
29.9361
30.0694
30.2015
30.3322
30.4617
30.5898
30.7167
30.8423
30.9666
31.0896
31.2114
31.332
31.4513
31.5694
31.6862
31.8018
31.9163
32.0295
32.1415
32.2524
32.362
32.4705
32.5778
32.684
32.7889
32.8928
32.9955
33.097
33.1974
33.2967
33.3948
33.4919
33.5878
33.6826
33.7762
33.8688
33.9603
34.0507
34.1399
34.2281
34.3152
34.4012
34.4862
34.57
34.6528
34.7344
34.8151
34.8946
34.973
35.0504
35.1267
35.202
35.2762
35.3493
35.4213
35.4923
35.5622
35.6311
35.6988
35.7655
35.8312
35.8958
35.9593
36.0217
36.0831
36.1434
36.2027
36.2609
36.318
36.374
36.429
36.4829
36.5358
36.5875
36.6382
36.6879
36.7364
36.7839
36.8303
36.8757
36.9199
36.9631
37.0052
37.0462
37.0862
37.1251
37.1629
37.1996
37.2353
37.2699
37.3034
37.3358
37.3671
37.3974
37.4266
37.4547
37.4817
37.5076
37.5325
37.5563
37.579
37.6006
37.6212
37.6407
37.659
37.6763
37.6926
37.7077
37.7218
37.7348
37.7467
37.7575
37.7672
37.7759
37.7835
37.7899
37.7954
37.7997
37.8029
37.8051
37.8062
-15.9225
-15.9156
-15.9019
-15.8812
-15.8537
-15.8194
-15.7782
-15.7302
-15.6753
-15.6137
-15.5452
-15.4701
-15.3882
-15.2995
-15.2043
-15.1023
-14.9937
-14.8786
-14.7569
-14.6286
-14.4939
-14.3528
-14.2052
-14.0514
-13.8912
-13.7248
-13.5521
-13.3734
-13.1885
-12.9976
-12.8007
-12.5978
-12.3891
-12.1746
-11.9542
-11.7282
-11.4966
-11.2594
-11.0167
-10.7685
-10.5151
-10.2564
-9.9925
-9.7236
-9.4498
-9.17124
-8.88809
-8.60054
-8.30881
-8.01314
-7.71377
-7.41096
-7.10497
-6.79607
-6.48449
-6.17046
-5.85417
-5.53582
-5.21556
-4.89355
-4.56993
-4.24483
-3.91837
-3.59068
-3.26189
-2.93209
-2.60142
-2.26997
-1.93786
-1.6052
-1.27209
-0.938625
-0.604914
-0.271051
0.0628693
0.396753
0.730511
1.06406
1.3973
1.73016
2.06256
2.39442
2.72566
3.05621
3.386
3.71496
4.04302
4.37012
4.69619
5.02119
5.34504
5.66769
5.9891
6.30921
6.62796
6.94532
7.26125
7.57568
7.8886
8.19995
8.5097
8.81781
9.12425
9.429
9.73201
10.0333
10.3327
10.6304
10.9262
11.2202
11.5123
11.8024
12.0907
12.3771
12.6615
12.9439
13.2244
13.5029
13.7794
14.0539
14.3263
14.5968
14.8653
15.1317
15.3961
15.6584
15.9188
16.1771
16.4333
16.6875
16.9397
17.1899
17.438
17.6842
17.9283
18.1703
18.4104
18.6485
18.8846
19.1187
19.3508
19.5809
19.8091
20.0353
20.2595
20.4819
20.7023
20.9207
21.1373
21.352
21.5648
21.7757
21.9847
22.1919
22.3973
22.6008
22.8025
23.0024
23.2005
23.3968
23.5913
23.7841
23.9751
24.1644
24.352
24.5378
24.722
24.9044
25.0852
25.2643
25.4418
25.6176
25.7918
25.9644
26.1354
26.3048
26.4726
26.6388
26.8035
26.9667
27.1283
27.2883
27.4469
27.604
27.7595
27.9136
28.0663
28.2174
28.3671
28.5154
28.6623
28.8077
28.9518
29.0944
29.2357
29.3755
29.514
29.6512
29.787
29.9215
30.0546
30.1864
30.3169
30.4462
30.5741
30.7007
30.8261
30.9501
31.073
31.1945
31.3149
31.434
31.5518
31.6685
31.7839
31.8981
32.0111
32.123
32.2336
32.3431
32.4514
32.5585
32.6644
32.7692
32.8729
32.9754
33.0767
33.1769
33.276
33.374
33.4709
33.5666
33.6612
33.7547
33.8471
33.9384
34.0286
34.1178
34.2058
34.2927
34.3786
34.4633
34.547
34.6296
34.7112
34.7916
34.871
34.9494
35.0266
35.1028
35.1779
35.2519
35.3249
35.3968
35.4677
35.5375
35.6062
35.6738
35.7404
35.806
35.8704
35.9338
35.9962
36.0574
36.1177
36.1768
36.2349
36.2919
36.3478
36.4027
36.4565
36.5093
36.561
36.6116
36.6611
36.7096
36.757
36.8033
36.8486
36.8927
36.9358
36.9779
37.0188
37.0587
37.0975
37.1353
37.172
37.2075
37.2421
37.2755
37.3079
37.3391
37.3694
37.3985
37.4265
37.4535
37.4794
37.5043
37.528
37.5507
37.5723
37.5928
37.6122
37.6306
37.6478
37.664
37.6791
37.6932
37.7061
37.718
37.7288
37.7385
37.7472
37.7547
37.7612
37.7666
37.771
37.7742
37.7764
37.7774
-15.8566
-15.8498
-15.8362
-15.8159
-15.7887
-15.7548
-15.7141
-15.6666
-15.6125
-15.5516
-15.484
-15.4097
-15.3288
-15.2413
-15.1471
-15.0464
-14.9391
-14.8253
-14.705
-14.5783
-14.4451
-14.3056
-14.1598
-14.0077
-13.8493
-13.6848
-13.5141
-13.3373
-13.1545
-12.9657
-12.771
-12.5704
-12.3639
-12.1517
-11.9338
-11.7102
-11.4811
-11.2464
-11.0062
-10.7606
-10.5097
-10.2536