/*--------------------------------*- C++ -*----------------------------------*\
| =========                 |                                                 |
| \\      /  F ield         | OpenFOAM: The Open Source CFD Toolbox           |
|  \\    /   O peration     | Version:  2212                                  |
|   \\  /    A nd           | Website:  www.openfoam.com                      |
|    \\/     M anipulation  |                                                 |
\*---------------------------------------------------------------------------*/
FoamFile
{
    version     2.0;
    format      ascii;
    arch        "LSB;label=32;scalar=64";
    class       volScalarField;
    location    "840";
    object      p_rgh;
}
// * * * * * * * * * * * * * * * * * * * * * * * * * * * * * * * * * * * * * //

dimensions      [1 -1 -2 0 0 0 0];

internalField   nonuniform List<scalar> 
204800
(
49.5511
49.5503
49.5475
49.5434
49.5373
49.5295
49.5196
49.5077
49.4936
49.4776
49.4596
49.4398
49.4181
49.3948
49.3697
49.343
49.3147
49.2848
49.2533
49.2203
49.1857
49.1496
49.112
49.0728
49.0323
48.9902
48.9468
48.9019
48.8556
48.808
48.759
48.7087
48.657
48.6041
48.55
48.4945
48.4379
48.3801
48.3211
48.261
48.1998
48.1375
48.0741
48.0097
47.9443
47.8779
47.8106
47.7424
47.6732
47.6032
47.5323
47.4607
47.3882
47.315
47.2411
47.1665
47.0912
47.0153
46.9388
46.8617
46.7841
46.706
46.6273
46.5483
46.4688
46.3889
46.3087
46.2282
46.1473
46.0662
45.9849
45.9033
45.8216
45.7397
45.6577
45.5756
45.4935
45.4113
45.3291
45.247
45.1648
45.0828
45.0009
44.9191
44.8375
44.756
44.6748
44.5938
44.5131
44.4327
44.3526
44.2729
44.1935
44.1145
44.036
43.9579
43.8802
43.8031
43.7265
43.6503
43.5748
43.4998
43.4254
43.3517
43.2785
43.206
43.1342
43.0631
42.9927
42.923
42.8541
42.7859
42.7185
42.6518
42.586
42.521
42.4568
42.3935
42.331
42.2693
42.2086
42.1488
42.0898
42.0318
41.9746
41.9184
41.8632
41.8088
41.7555
41.7031
41.6516
41.6011
41.5516
41.5031
41.4556
41.4091
41.3635
41.3189
41.2754
41.2328
41.1913
41.1507
41.1112
41.0726
41.0351
40.9986
40.963
40.9285
40.895
40.8625
40.8309
40.8004
40.7708
40.7423
40.7147
40.6881
40.6624
40.6378
40.6141
40.5913
40.5695
40.5486
40.5287
40.5097
40.4917
40.4745
40.4583
40.4429
40.4285
40.4149
40.4022
40.3903
40.3794
40.3692
40.3599
40.3515
40.3438
40.337
40.3309
40.3256
40.3211
40.3174
40.3144
40.3122
40.3107
40.3099
40.3098
40.3104
40.3117
40.3137
40.3163
40.3196
40.3235
40.328
40.3331
40.3388
40.3451
40.352
40.3595
40.3675
40.376
40.385
40.3946
40.4046
40.4152
40.4262
40.4376
40.4495
40.4619
40.4746
40.4878
40.5014
40.5153
40.5296
40.5443
40.5593
40.5746
40.5903
40.6062
40.6225
40.639
40.6558
40.6729
40.6902
40.7077
40.7254
40.7434
40.7616
40.7799
40.7984
40.8171
40.8359
40.8548
40.8739
40.8931
40.9124
40.9318
40.9513
40.9708
40.9904
41.0101
41.0298
41.0495
41.0692
41.089
41.1087
41.1284
41.1481
41.1678
41.1875
41.207
41.2265
41.246
41.2654
41.2846
41.3038
41.3229
41.3418
41.3607
41.3794
41.3979
41.4163
41.4346
41.4527
41.4706
41.4883
41.5059
41.5232
41.5404
41.5573
41.574
41.5905
41.6068
41.6228
41.6386
41.6541
41.6694
41.6844
41.6992
41.7136
41.7278
41.7418
41.7554
41.7687
41.7817
41.7945
41.8069
41.819
41.8307
41.8422
41.8533
41.8641
41.8746
41.8847
41.8945
41.9039
41.913
41.9217
41.9301
41.9381
41.9457
41.953
41.9599
41.9665
41.9726
41.9784
41.9838
41.9889
41.9935
41.9978
42.0017
42.0052
42.0083
42.0111
42.0134
42.0154
42.0169
42.0181
42.0189
42.0193
49.4707
49.4685
49.4641
49.4578
49.4495
49.4395
49.4277
49.4142
49.399
49.3821
49.3636
49.3433
49.3215
49.298
49.2728
49.2461
49.2178
49.1879
49.1564
49.1234
49.0889
49.0528
49.0152
48.9762
48.9356
48.8937
48.8503
48.8055
48.7593
48.7117
48.6628
48.6126
48.561
48.5082
48.4541
48.3988
48.3423
48.2846
48.2257
48.1657
48.1046
48.0424
47.9792
47.9149
47.8496
47.7833
47.7161
47.648
47.5789
47.509
47.4383
47.3668
47.2945
47.2214
47.1476
47.0731
46.998
46.9222
46.8458
46.7689
46.6914
46.6134
46.535
46.456
46.3767
46.297
46.2169
46.1365
46.0558
45.9748
45.8936
45.8122
45.7307
45.6489
45.5671
45.4851
45.4031
45.3211
45.2391
45.1571
45.0751
44.9932
44.9114
44.8298
44.7483
44.667
44.5859
44.5051
44.4246
44.3443
44.2643
44.1848
44.1055
44.0267
43.9483
43.8703
43.7928
43.7158
43.6393
43.5634
43.4879
43.4131
43.3388
43.2652
43.1922
43.1199
43.0482
42.9772
42.9069
42.8374
42.7685
42.7005
42.6332
42.5667
42.501
42.4361
42.372
42.3088
42.2464
42.1849
42.1243
42.0645
42.0057
41.9478
41.8907
41.8346
41.7795
41.7253
41.672
41.6197
41.5683
41.518
41.4686
41.4201
41.3727
41.3262
41.2808
41.2363
41.1928
41.1504
41.1089
41.0684
41.0289
40.9905
40.953
40.9166
40.8811
40.8466
40.8132
40.7807
40.7492
40.7187
40.6893
40.6607
40.6332
40.6067
40.5811
40.5565
40.5328
40.5101
40.4883
40.4675
40.4476
40.4287
40.4107
40.3935
40.3773
40.362
40.3476
40.334
40.3214
40.3096
40.2986
40.2885
40.2792
40.2708
40.2631
40.2563
40.2503
40.245
40.2405
40.2368
40.2338
40.2316
40.2301
40.2293
40.2292
40.2298
40.2311
40.2331
40.2357
40.239
40.2429
40.2474
40.2525
40.2583
40.2646
40.2714
40.2789
40.2868
40.2954
40.3044
40.3139
40.324
40.3345
40.3455
40.3569
40.3688
40.3811
40.3939
40.407
40.4205
40.4345
40.4487
40.4634
40.4784
40.4937
40.5093
40.5252
40.5415
40.558
40.5747
40.5918
40.609
40.6265
40.6443
40.6622
40.6803
40.6986
40.7171
40.7357
40.7545
40.7734
40.7925
40.8117
40.8309
40.8503
40.8697
40.8892
40.9088
40.9284
40.9481
40.9678
40.9875
41.0072
41.0269
41.0466
41.0662
41.0859
41.1055
41.125
41.1445
41.1639
41.1833
41.2025
41.2216
41.2407
41.2596
41.2784
41.2971
41.3156
41.334
41.3522
41.3702
41.3881
41.4058
41.4233
41.4407
41.4578
41.4747
41.4914
41.5078
41.5241
41.5401
41.5558
41.5713
41.5866
41.6016
41.6163
41.6308
41.6449
41.6588
41.6724
41.6857
41.6987
41.7114
41.7238
41.7359
41.7476
41.7591
41.7702
41.781
41.7914
41.8015
41.8113
41.8207
41.8297
41.8384
41.8468
41.8548
41.8624
41.8697
41.8766
41.8831
41.8893
41.8951
41.9005
41.9055
41.9101
41.9144
41.9183
41.9218
41.9249
41.9276
41.93
41.9319
41.9335
41.9347
41.9355
41.9358
49.4532
49.4511
49.4467
49.4405
49.4322
49.4222
49.4103
49.3969
49.3816
49.3647
49.3461
49.3259
49.304
49.2804
49.2553
49.2285
49.2002
49.1702
49.1388
49.1057
49.0711
49.0351
48.9975
48.9584
48.9179
48.8759
48.8325
48.7877
48.7415
48.6939
48.645
48.5947
48.5432
48.4904
48.4363
48.381
48.3244
48.2667
48.2078
48.1478
48.0867
48.0245
47.9613
47.897
47.8317
47.7654
47.6982
47.63
47.561
47.4911
47.4204
47.3489
47.2765
47.2035
47.1297
47.0552
46.9801
46.9043
46.8279
46.751
46.6735
46.5955
46.517
46.4381
46.3588
46.2791
46.199
46.1186
46.0379
45.9569
45.8757
45.7943
45.7128
45.631
45.5492
45.4673
45.3853
45.3032
45.2212
45.1392
45.0572
44.9753
44.8936
44.8119
44.7304
44.6491
44.5681
44.4873
44.4067
44.3264
44.2465
44.1669
44.0877
44.0089
43.9305
43.8525
43.775
43.698
43.6215
43.5456
43.4702
43.3953
43.3211
43.2475
43.1745
43.1021
43.0304
42.9595
42.8892
42.8196
42.7508
42.6828
42.6155
42.549
42.4833
42.4184
42.3544
42.2911
42.2288
42.1673
42.1067
42.0469
41.9881
41.9302
41.8732
41.8171
41.7619
41.7077
41.6545
41.6022
41.5508
41.5004
41.4511
41.4026
41.3552
41.3088
41.2633
41.2188
41.1754
41.1329
41.0915
41.051
41.0115
40.9731
40.9356
40.8992
40.8637
40.8293
40.7958
40.7634
40.7319
40.7014
40.672
40.6435
40.6159
40.5894
40.5638
40.5392
40.5156
40.4929
40.4711
40.4503
40.4304
40.4115
40.3935
40.3764
40.3602
40.3449
40.3304
40.3169
40.3042
40.2924
40.2815
40.2714
40.2621
40.2537
40.246
40.2392
40.2332
40.228
40.2235
40.2198
40.2168
40.2146
40.2131
40.2123
40.2122
40.2129
40.2142
40.2161
40.2188
40.222
40.2259
40.2305
40.2356
40.2413
40.2476
40.2545
40.262
40.2699
40.2785
40.2875
40.297
40.3071
40.3176
40.3286
40.34
40.3519
40.3643
40.377
40.3901
40.4037
40.4176
40.4319
40.4465
40.4615
40.4768
40.4925
40.5084
40.5246
40.5411
40.5579
40.575
40.5922
40.6097
40.6275
40.6454
40.6635
40.6818
40.7003
40.7189
40.7377
40.7567
40.7757
40.7949
40.8141
40.8335
40.8529
40.8725
40.892
40.9116
40.9313
40.951
40.9707
40.9904
41.0101
41.0298
41.0495
41.0691
41.0887
41.1083
41.1277
41.1472
41.1665
41.1857
41.2049
41.2239
41.2428
41.2616
41.2803
41.2988
41.3172
41.3354
41.3535
41.3714
41.3891
41.4066
41.4239
41.441
41.4579
41.4746
41.4911
41.5073
41.5233
41.5391
41.5546
41.5698
41.5848
41.5995
41.614
41.6281
41.642
41.6556
41.6689
41.6819
41.6946
41.707
41.7191
41.7309
41.7423
41.7534
41.7642
41.7746
41.7847
41.7945
41.8039
41.8129
41.8216
41.83
41.838
41.8456
41.8529
41.8598
41.8663
41.8725
41.8783
41.8837
41.8887
41.8933
41.8976
41.9015
41.905
41.9081
41.9108
41.9132
41.9151
41.9167
41.9179
41.9186
41.919
49.3803
49.3779
49.3728
49.3656
49.3563
49.3453
49.3325
49.3181
49.3021
49.2847
49.2656
49.245
49.2228
49.1991
49.1737
49.1469
49.1184
49.0885
49.0569
49.0239
48.9893
48.9532
48.9156
48.8766
48.836
48.7941
48.7507
48.7059
48.6597
48.6122
48.5633
48.5131
48.4616
48.4089
48.3548
48.2996
48.2431
48.1855
48.1266
48.0667
48.0057
47.9435
47.8803
47.8161
47.7509
47.6847
47.6175
47.5495
47.4805
47.4107
47.3401
47.2686
47.1964
47.1234
47.0497
46.9753
46.9002
46.8245
46.7483
46.6714
46.594
46.5161
46.4377
46.3589
46.2797
46.2
46.12
46.0397
45.9591
45.8783
45.7972
45.7159
45.6344
45.5528
45.471
45.3892
45.3073
45.2254
45.1434
45.0615
44.9796
44.8979
44.8162
44.7346
44.6533
44.5721
44.4911
44.4104
44.3299
44.2498
44.1699
44.0904
44.0113
43.9326
43.8543
43.7764
43.699
43.6221
43.5457
43.4699
43.3946
43.3198
43.2457
43.1721
43.0992
43.027
42.9554
42.8845
42.8144
42.7449
42.6762
42.6082
42.541
42.4746
42.409
42.3442
42.2802
42.2171
42.1548
42.0934
42.0329
41.9732
41.9145
41.8566
41.7997
41.7437
41.6886
41.6345
41.5813
41.5291
41.4778
41.4275
41.3782
41.3299
41.2825
41.2361
41.1907
41.1463
41.1029
41.0605
41.0191
40.9787
40.9394
40.901
40.8636
40.8272
40.7918
40.7574
40.724
40.6916
40.6602
40.6298
40.6003
40.5719
40.5444
40.5179
40.4924
40.4678
40.4442
40.4216
40.3999
40.3791
40.3593
40.3404
40.3224
40.3053
40.2891
40.2739
40.2595
40.246
40.2333
40.2216
40.2106
40.2006
40.1913
40.1829
40.1753
40.1685
40.1625
40.1573
40.1528
40.1491
40.1462
40.144
40.1425
40.1417
40.1417
40.1423
40.1436
40.1456
40.1483
40.1515
40.1554
40.16
40.1651
40.1709
40.1772
40.1841
40.1915
40.1995
40.208
40.2171
40.2266
40.2366
40.2472
40.2581
40.2696
40.2815
40.2938
40.3065
40.3197
40.3332
40.3471
40.3614
40.3761
40.391
40.4063
40.422
40.4379
40.4541
40.4706
40.4874
40.5044
40.5216
40.5391
40.5569
40.5748
40.5929
40.6112
40.6296
40.6483
40.667
40.6859
40.705
40.7241
40.7434
40.7627
40.7822
40.8016
40.8212
40.8408
40.8604
40.8801
40.8998
40.9195
40.9392
40.9589
40.9785
40.9981
41.0177
41.0372
41.0567
41.0761
41.0954
41.1146
41.1337
41.1528
41.1717
41.1905
41.2091
41.2276
41.246
41.2642
41.2822
41.3001
41.3177
41.3352
41.3525
41.3696
41.3865
41.4032
41.4196
41.4359
41.4518
41.4676
41.4831
41.4983
41.5133
41.528
41.5424
41.5566
41.5705
41.584
41.5973
41.6103
41.623
41.6354
41.6474
41.6592
41.6706
41.6817
41.6924
41.7029
41.713
41.7227
41.7321
41.7412
41.7499
41.7582
41.7662
41.7738
41.7811
41.788
41.7945
41.8006
41.8064
41.8118
41.8168
41.8215
41.8257
41.8296
41.8331
41.8362
41.839
41.8413
41.8433
41.8448
41.846
41.8468
41.8472
49.3517
49.3493
49.3443
49.3373
49.328
49.3171
49.3044
49.29
49.2741
49.2566
49.2375
49.2168
49.1946
49.1708
49.1454
49.1185
49.09
49.06
49.0284
48.9953
48.9607
48.9245
48.8869
48.8478
48.8073
48.7653
48.7219
48.6771
48.6309
48.5833
48.5344
48.4842
48.4327
48.3799
48.3259
48.2706
48.2141
48.1564
48.0976
48.0376
47.9766
47.9144
47.8512
47.787
47.7217
47.6555
47.5884
47.5203
47.4513
47.3815
47.3108
47.2394
47.1671
47.0941
47.0204
46.946
46.8709
46.7952
46.7189
46.6421
46.5647
46.4868
46.4084
46.3295
46.2503
46.1707
46.0907
46.0104
45.9298
45.8489
45.7678
45.6865
45.605
45.5233
45.4416
45.3597
45.2778
45.1959
45.114
45.032
44.9502
44.8684
44.7867
44.7052
44.6238
44.5426
44.4616
44.3809
44.3004
44.2203
44.1404
44.061
43.9818
43.9031
43.8248
43.747
43.6696
43.5927
43.5163
43.4404
43.3651
43.2904
43.2162
43.1427
43.0698
42.9975
42.926
42.8551
42.7849
42.7155
42.6467
42.5788
42.5116
42.4452
42.3796
42.3148
42.2509
42.1877
42.1255
42.0641
42.0035
41.9439
41.8852
41.8273
41.7704
41.7144
41.6593
41.6052
41.5521
41.4998
41.4486
41.3983
41.349
41.3007
41.2533
41.207
41.1616
41.1172
41.0738
41.0315
40.9901
40.9497
40.9103
40.8719
40.8345
40.7982
40.7628
40.7284
40.695
40.6627
40.6313
40.6009
40.5714
40.543
40.5156
40.4891
40.4636
40.439
40.4154
40.3928
40.3711
40.3504
40.3305
40.3117
40.2937
40.2766
40.2605
40.2452
40.2309
40.2174
40.2048
40.193
40.1821
40.1721
40.1628
40.1544
40.1468
40.1401
40.1341
40.1289
40.1244
40.1207
40.1178
40.1156
40.1142
40.1134
40.1134
40.114
40.1154
40.1174
40.12
40.1233
40.1272
40.1318
40.1369
40.1427
40.149
40.1559
40.1634
40.1714
40.1799
40.189
40.1985
40.2086
40.2191
40.2301
40.2416
40.2535
40.2658
40.2785
40.2917
40.3052
40.3192
40.3335
40.3481
40.3631
40.3784
40.394
40.41
40.4262
40.4427
40.4595
40.4765
40.4938
40.5113
40.529
40.5469
40.5651
40.5834
40.6018
40.6205
40.6392
40.6582
40.6772
40.6964
40.7156
40.735
40.7544
40.7739
40.7935
40.8131
40.8327
40.8524
40.8721
40.8918
40.9115
40.9311
40.9508
40.9704
40.99
41.0095
41.029
41.0484
41.0677
41.0869
41.1061
41.1251
41.144
41.1628
41.1814
41.1999
41.2183
41.2365
41.2545
41.2724
41.2901
41.3076
41.3249
41.342
41.3589
41.3756
41.392
41.4082
41.4242
41.4399
41.4554
41.4707
41.4857
41.5004
41.5148
41.529
41.5428
41.5564
41.5697
41.5827
41.5954
41.6077
41.6198
41.6315
41.643
41.6541
41.6648
41.6753
41.6853
41.6951
41.7045
41.7135
41.7222
41.7306
41.7386
41.7462
41.7534
41.7603
41.7669
41.773
41.7788
41.7842
41.7892
41.7939
41.7981
41.802
41.8055
41.8086
41.8113
41.8137
41.8156
41.8172
41.8184
41.8191
41.8195
49.285
49.2825
49.2773
49.2699
49.2603
49.2489
49.2357
49.2209
49.2046
49.1867
49.1673
49.1463
49.1239
49.0999
49.0743
49.0473
49.0187
48.9885
48.9569
48.9237
48.889
48.8529
48.8152
48.7761
48.7356
48.6936
48.6501
48.6053
48.5591
48.5116
48.4627
48.4125
48.361
48.3082
48.2542
48.1989
48.1425
48.0848
48.026
47.9661
47.905
47.8429
47.7797
47.7155
47.6503
47.5842
47.517
47.449
47.3801
47.3103
47.2396
47.1682
47.096
47.023
46.9494
46.875
46.8
46.7243
46.6481
46.5713
46.4939
46.4161
46.3377
46.2589
46.1797
46.1001
46.0202
45.9399
45.8594
45.7786
45.6975
45.6163
45.5348
45.4532
45.3715
45.2898
45.2079
45.126
45.0441
44.9623
44.8805
44.7987
44.7171
44.6356
44.5543
44.4732
44.3923
44.3116
44.2312
44.1511
44.0713
43.9919
43.9128
43.8342
43.7559
43.6781
43.6008
43.524
43.4476
43.3718
43.2966
43.2219
43.1478
43.0744
43.0015
42.9293
42.8578
42.787
42.7169
42.6475
42.5789
42.511
42.4438
42.3775
42.3119
42.2472
42.1833
42.1203
42.0581
41.9967
41.9362
41.8767
41.818
41.7602
41.7033
41.6474
41.5924
41.5383
41.4852
41.4331
41.3819
41.3317
41.2824
41.2341
41.1868
41.1405
41.0952
41.0509
41.0076
40.9652
40.9239
40.8836
40.8442
40.8059
40.7686
40.7322
40.6969
40.6626
40.6293
40.5969
40.5656
40.5352
40.5059
40.4775
40.4501
40.4236
40.3982
40.3736
40.3501
40.3275
40.3059
40.2852
40.2654
40.2465
40.2286
40.2116
40.1955
40.1803
40.1659
40.1525
40.1399
40.1282
40.1173
40.1073
40.0981
40.0897
40.0822
40.0754
40.0694
40.0643
40.0599
40.0562
40.0533
40.0511
40.0497
40.049
40.049
40.0496
40.051
40.053
40.0557
40.059
40.0629
40.0675
40.0727
40.0784
40.0848
40.0917
40.0992
40.1072
40.1157
40.1248
40.1344
40.1444
40.155
40.166
40.1775
40.1894
40.2017
40.2145
40.2276
40.2412
40.2551
40.2694
40.2841
40.2991
40.3144
40.33
40.346
40.3622
40.3787
40.3955
40.4125
40.4298
40.4473
40.465
40.4829
40.5011
40.5194
40.5378
40.5565
40.5753
40.5942
40.6132
40.6324
40.6516
40.671
40.6904
40.7099
40.7294
40.749
40.7687
40.7884
40.808
40.8277
40.8474
40.8671
40.8867
40.9064
40.9259
40.9455
40.9649
40.9843
41.0036
41.0228
41.042
41.061
41.0799
41.0987
41.1173
41.1358
41.1541
41.1723
41.1904
41.2082
41.2259
41.2434
41.2607
41.2778
41.2947
41.3113
41.3278
41.344
41.36
41.3757
41.3912
41.4064
41.4214
41.4361
41.4505
41.4646
41.4785
41.4921
41.5054
41.5184
41.531
41.5434
41.5555
41.5672
41.5786
41.5897
41.6004
41.6109
41.621
41.6307
41.6401
41.6491
41.6578
41.6662
41.6741
41.6818
41.689
41.6959
41.7024
41.7086
41.7144
41.7198
41.7248
41.7294
41.7337
41.7376
41.741
41.7442
41.7469
41.7492
41.7512
41.7527
41.7539
41.7547
41.7551
49.2491
49.2466
49.2415
49.2343
49.2248
49.2135
49.2005
49.1858
49.1694
49.1516
49.1321
49.1111
49.0886
49.0646
49.039
49.0118
48.9832
48.953
48.9213
48.888
48.8533
48.8171
48.7794
48.7402
48.6996
48.6575
48.6141
48.5692
48.523
48.4754
48.4265
48.3762
48.3247
48.2719
48.2178
48.1625
48.106
48.0483
47.9895
47.9295
47.8685
47.8063
47.7431
47.6789
47.6136
47.5474
47.4803
47.4122
47.3433
47.2734
47.2028
47.1313
47.0591
46.9861
46.9124
46.838
46.763
46.6873
46.611
46.5342
46.4568
46.3789
46.3005
46.2217
46.1425
46.0629
45.9829
45.9027
45.8221
45.7412
45.6602
45.5789
45.4974
45.4158
45.3341
45.2523
45.1704
45.0885
45.0066
44.9248
44.8429
44.7612
44.6795
44.598
44.5167
44.4356
44.3546
44.2739
44.1935
44.1134
44.0336
43.9542
43.8751
43.7965
43.7182
43.6404
43.5631
43.4862
43.4099
43.3341
43.2588
43.1841
43.11
43.0366
42.9637
42.8915
42.82
42.7492
42.6791
42.6097
42.541
42.4732
42.406
42.3397
42.2742
42.2094
42.1455
42.0825
42.0203
41.9589
41.8985
41.8389
41.7802
41.7225
41.6656
41.6097
41.5547
41.5006
41.4475
41.3954
41.3442
41.294
41.2448
41.1965
41.1492
41.1029
41.0576
41.0133
40.97
40.9277
40.8864
40.8461
40.8068
40.7684
40.7311
40.6948
40.6595
40.6252
40.5919
40.5596
40.5283
40.4979
40.4686
40.4402
40.4128
40.3864
40.361
40.3365
40.313
40.2904
40.2688
40.2481
40.2283
40.2095
40.1916
40.1746
40.1585
40.1433
40.129
40.1156
40.103
40.0913
40.0805
40.0705
40.0613
40.053
40.0455
40.0387
40.0328
40.0276
40.0233
40.0196
40.0167
40.0146
40.0132
40.0125
40.0125
40.0132
40.0146
40.0166
40.0193
40.0227
40.0266
40.0312
40.0364
40.0422
40.0486
40.0555
40.063
40.071
40.0796
40.0887
40.0983
40.1084
40.1189
40.13
40.1415
40.1534
40.1658
40.1785
40.1917
40.2053
40.2192
40.2336
40.2482
40.2632
40.2786
40.2942
40.3102
40.3265
40.343
40.3598
40.3768
40.3941
40.4116
40.4294
40.4473
40.4654
40.4838
40.5022
40.5209
40.5397
40.5586
40.5777
40.5968
40.6161
40.6355
40.6549
40.6744
40.694
40.7136
40.7332
40.7529
40.7726
40.7923
40.812
40.8317
40.8514
40.871
40.8906
40.9101
40.9296
40.949
40.9683
40.9875
41.0067
41.0257
41.0446
41.0634
41.082
41.1005
41.1189
41.1371
41.1551
41.173
41.1907
41.2082
41.2255
41.2426
41.2595
41.2761
41.2926
41.3088
41.3248
41.3405
41.356
41.3712
41.3862
41.4009
41.4153
41.4295
41.4434
41.4569
41.4702
41.4832
41.4959
41.5083
41.5203
41.5321
41.5435
41.5546
41.5653
41.5757
41.5858
41.5956
41.605
41.614
41.6227
41.6311
41.639
41.6467
41.6539
41.6608
41.6673
41.6735
41.6792
41.6846
41.6897
41.6943
41.6986
41.7025
41.7059
41.7091
41.7118
41.7141
41.7161
41.7176
41.7188
41.7196
41.72
49.1873
49.1848
49.1796
49.1723
49.1627
49.1513
49.138
49.1231
49.1065
49.0885
49.0688
49.0476
49.0249
49.0007
48.975
48.9477
48.9189
48.8886
48.8568
48.8235
48.7887
48.7524
48.7147
48.6755
48.6348
48.5927
48.5492
48.5043
48.4581
48.4105
48.3615
48.3113
48.2597
48.2069
48.1528
48.0975
48.041
47.9833
47.9244
47.8645
47.8034
47.7412
47.678
47.6138
47.5486
47.4824
47.4152
47.3471
47.2782
47.2084
47.1377
47.0663
46.994
46.921
46.8473
46.773
46.6979
46.6223
46.546
46.4692
46.3918
46.3139
46.2355
46.1568
46.0775
45.9979
45.918
45.8377
45.7572
45.6763
45.5953
45.514
45.4326
45.351
45.2693
45.1875
45.1056
45.0238
44.9419
44.86
44.7782
44.6965
44.6149
44.5334
44.4521
44.3709
44.29
44.2094
44.129
44.0489
43.9691
43.8897
43.8107
43.732
43.6538
43.576
43.4987
43.4219
43.3456
43.2698
43.1946
43.1199
43.0459
42.9724
42.8996
42.8275
42.756
42.6852
42.6151
42.5458
42.4772
42.4093
42.3422
42.2759
42.2104
42.1457
42.0819
42.0189
41.9567
41.8954
41.835
41.7754
41.7168
41.6591
41.6023
41.5464
41.4914
41.4374
41.3844
41.3323
41.2811
41.2309
41.1817
41.1335
41.0863
41.04
40.9948
40.9505
40.9072
40.865
40.8237
40.7834
40.7442
40.7059
40.6686
40.6324
40.5971
40.5628
40.5296
40.4973
40.466
40.4357
40.4064
40.3781
40.3507
40.3244
40.299
40.2745
40.251
40.2285
40.2069
40.1863
40.1666
40.1478
40.1299
40.113
40.0969
40.0818
40.0675
40.0541
40.0416
40.0299
40.0191
40.0092
40
39.9917
39.9842
39.9775
39.9716
39.9665
39.9622
39.9586
39.9557
39.9536
39.9522
39.9516
39.9516
39.9523
39.9537
39.9558
39.9585
39.9619
39.9659
39.9705
39.9758
39.9816
39.988
39.9949
40.0025
40.0105
40.0191
40.0282
40.0378
40.048
40.0586
40.0696
40.0811
40.0931
40.1055
40.1183
40.1315
40.1451
40.159
40.1734
40.188
40.2031
40.2184
40.2341
40.2501
40.2663
40.2829
40.2997
40.3168
40.3341
40.3516
40.3693
40.3873
40.4055
40.4238
40.4423
40.4609
40.4797
40.4987
40.5177
40.5369
40.5562
40.5756
40.595
40.6145
40.6341
40.6537
40.6734
40.6931
40.7128
40.7325
40.7522
40.7719
40.7916
40.8112
40.8308
40.8503
40.8698
40.8892
40.9085
40.9277
40.9469
40.9659
40.9848
41.0036
41.0223
41.0408
41.0591
41.0773
41.0954
41.1132
41.1309
41.1484
41.1657
41.1828
41.1997
41.2164
41.2328
41.249
41.265
41.2808
41.2962
41.3115
41.3264
41.3412
41.3556
41.3697
41.3836
41.3972
41.4105
41.4235
41.4361
41.4485
41.4606
41.4723
41.4837
41.4948
41.5056
41.516
41.5261
41.5358
41.5452
41.5543
41.563
41.5713
41.5793
41.5869
41.5941
41.601
41.6076
41.6137
41.6195
41.6249
41.6299
41.6345
41.6388
41.6427
41.6462
41.6493
41.652
41.6543
41.6563
41.6579
41.659
41.6598
41.6602
49.1466
49.1442
49.1392
49.132
49.1225
49.1112
49.0981
49.0833
49.0668
49.0487
49.029
49.0078
48.9851
48.9608
48.935
48.9077
48.8788
48.8485
48.8166
48.7832
48.7483
48.712
48.6741
48.6349
48.5941
48.552
48.5084
48.4635
48.4172
48.3695
48.3205
48.2702
48.2186
48.1657
48.1115
48.0562
47.9996
47.9419
47.883
47.823
47.7618
47.6996
47.6364
47.5721
47.5068
47.4406
47.3734
47.3053
47.2362
47.1664
47.0957
47.0242
46.9519
46.8789
46.8051
46.7307
46.6556
46.5799
46.5036
46.4267
46.3493
46.2714
46.193
46.1141
46.0349
45.9552
45.8753
45.7949
45.7143
45.6335
45.5524
45.4711
45.3896
45.308
45.2262
45.1444
45.0625
44.9806
44.8987
44.8168
44.7349
44.6532
44.5715
44.49
44.4087
44.3275
44.2466
44.1659
44.0855
44.0053
43.9256
43.8461
43.767
43.6884
43.6101
43.5323
43.455
43.3781
43.3018
43.226
43.1508
43.0761
43.002
42.9286
42.8558
42.7836
42.7121
42.6413
42.5712
42.5019
42.4332
42.3654
42.2983
42.232
42.1664
42.1018
42.0379
41.9749
41.9127
41.8514
41.791
41.7315
41.6728
41.6151
41.5583
41.5024
41.4475
41.3935
41.3404
41.2883
41.2372
41.187
41.1378
41.0896
41.0424
40.9962
40.9509
40.9067
40.8634
40.8212
40.7799
40.7397
40.7004
40.6622
40.6249
40.5887
40.5534
40.5192
40.4859
40.4537
40.4224
40.3922
40.3629
40.3346
40.3073
40.2809
40.2555
40.2311
40.2077
40.1852
40.1636
40.143
40.1233
40.1046
40.0867
40.0698
40.0538
40.0387
40.0244
40.0111
39.9986
39.987
39.9762
39.9663
39.9572
39.9489
39.9414
39.9348
39.9289
39.9238
39.9195
39.9159
39.9131
39.9111
39.9097
39.9091
39.9091
39.9099
39.9113
39.9134
39.9162
39.9196
39.9236
39.9283
39.9335
39.9394
39.9458
39.9528
39.9604
39.9685
39.9771
39.9862
39.9959
40.006
40.0167
40.0277
40.0393
40.0513
40.0637
40.0765
40.0897
40.1034
40.1174
40.1317
40.1464
40.1615
40.1769
40.1926
40.2086
40.2249
40.2414
40.2583
40.2754
40.2927
40.3103
40.328
40.346
40.3642
40.3825
40.4011
40.4197
40.4386
40.4575
40.4766
40.4958
40.5151
40.5345
40.554
40.5735
40.5931
40.6127
40.6324
40.6521
40.6718
40.6916
40.7113
40.731
40.7507
40.7703
40.7899
40.8095
40.829
40.8484
40.8677
40.887
40.9061
40.9252
40.9441
40.9629
40.9816
41.0001
41.0185
41.0367
41.0547
41.0726
41.0903
41.1078
41.1251
41.1422
41.1591
41.1758
41.1923
41.2085
41.2245
41.2402
41.2557
41.271
41.286
41.3007
41.3151
41.3293
41.3431
41.3567
41.37
41.383
41.3957
41.4081
41.4201
41.4319
41.4433
41.4544
41.4652
41.4756
41.4857
41.4954
41.5048
41.5139
41.5226
41.5309
41.5389
41.5465
41.5538
41.5607
41.5672
41.5733
41.5791
41.5845
41.5896
41.5942
41.5985
41.6023
41.6058
41.6089
41.6117
41.614
41.616
41.6175
41.6187
41.6195
41.6199
49.0885
49.0861
49.0811
49.0739
49.0645
49.0531
49.0399
49.025
49.0084
48.9902
48.9705
48.9491
48.9263
48.9019
48.8759
48.8485
48.8195
48.7891
48.7571
48.7236
48.6886
48.6522
48.6143
48.575
48.5342
48.492
48.4484
48.4034
48.357
48.3093
48.2602
48.2098
48.1582
48.1053
48.0511
47.9957
47.9391
47.8813
47.8224
47.7623
47.7012
47.6389
47.5756
47.5113
47.446
47.3797
47.3125
47.2443
47.1753
47.1054
47.0347
46.9631
46.8908
46.8178
46.744
46.6696
46.5945
46.5187
46.4424
46.3655
46.288
46.2101
46.1317
46.0528
45.9735
45.8938
45.8138
45.7335
45.6529
45.572
45.4909
45.4095
45.328
45.2464
45.1646
45.0828
45.0009
44.919
44.837
44.7551
44.6733
44.5915
44.5098
44.4283
44.3469
44.2658
44.1848
44.1041
44.0237
43.9436
43.8638
43.7843
43.7053
43.6266
43.5484
43.4705
43.3932
43.3164
43.24
43.1642
43.089
43.0143
42.9403
42.8668
42.794
42.7219
42.6504
42.5796
42.5095
42.4401
42.3715
42.3037
42.2366
42.1703
42.1048
42.0401
41.9763
41.9133
41.8511
41.7899
41.7295
41.67
41.6113
41.5536
41.4969
41.441
41.3861
41.3321
41.2791
41.227
41.1759
41.1258
41.0766
41.0285
40.9813
40.9351
40.8898
40.8456
40.8024
40.7602
40.719
40.6787
40.6395
40.6013
40.5641
40.5279
40.4927
40.4585
40.4253
40.3931
40.3619
40.3316
40.3024
40.2741
40.2468
40.2205
40.1952
40.1708
40.1474
40.125
40.1034
40.0829
40.0632
40.0445
40.0267
40.0099
39.9939
39.9788
39.9646
39.9513
39.9388
39.9273
39.9165
39.9066
39.8976
39.8893
39.8819
39.8753
39.8695
39.8644
39.8602
39.8566
39.8539
39.8518
39.8505
39.8499
39.8501
39.8509
39.8523
39.8545
39.8573
39.8607
39.8648
39.8695
39.8748
39.8807
39.8871
39.8942
39.9017
39.9099
39.9185
39.9277
39.9374
39.9476
39.9582
39.9694
39.9809
39.993
40.0054
40.0183
40.0315
40.0452
40.0592
40.0736
40.0883
40.1034
40.1188
40.1346
40.1506
40.1669
40.1835
40.2004
40.2175
40.2349
40.2524
40.2702
40.2882
40.3064
40.3248
40.3434
40.3621
40.3809
40.3999
40.419
40.4382
40.4575
40.477
40.4964
40.516
40.5356
40.5553
40.575
40.5947
40.6144
40.6342
40.6539
40.6736
40.6933
40.713
40.7326
40.7522
40.7717
40.7911
40.8105
40.8297
40.8489
40.868
40.8869
40.9057
40.9244
40.9429
40.9613
40.9795
40.9976
41.0155
41.0332
41.0507
41.068
41.0851
41.102
41.1187
41.1352
41.1514
41.1674
41.1832
41.1987
41.2139
41.2289
41.2436
41.2581
41.2723
41.2861
41.2997
41.313
41.326
41.3387
41.3511
41.3632
41.3749
41.3863
41.3974
41.4082
41.4186
41.4287
41.4385
41.4479
41.4569
41.4656
41.474
41.482
41.4896
41.4969
41.5038
41.5103
41.5164
41.5222
41.5276
41.5326
41.5373
41.5415
41.5454
41.5489
41.552
41.5548
41.5571
41.5591
41.5606
41.5618
41.5626
41.563
49.045
49.0426
49.0377
49.0306
49.0213
49.0101
48.997
48.9821
48.9656
48.9474
48.9277
48.9063
48.8834
48.859
48.833
48.8055
48.7764
48.7459
48.7138
48.6803
48.6452
48.6087
48.5708
48.5313
48.4905
48.4482
48.4045
48.3594
48.313
48.2652
48.216
48.1656
48.1139
48.0609
48.0066
47.9512
47.8945
47.8367
47.7777
47.7175
47.6563
47.594
47.5306
47.4663
47.4009
47.3345
47.2672
47.199
47.1299
47.0599
46.9891
46.9175
46.8452
46.772
46.6982
46.6237
46.5485
46.4727
46.3963
46.3193
46.2418
46.1638
46.0853
46.0064
45.927
45.8473
45.7672
45.6868
45.6061
45.5252
45.444
45.3626
45.2811
45.1994
45.1175
45.0356
44.9537
44.8717
44.7897
44.7077
44.6258
44.544
44.4623
44.3807
44.2993
44.2181
44.1371
44.0563
43.9759
43.8957
43.8158
43.7364
43.6572
43.5785
43.5002
43.4224
43.345
43.2681
43.1918
43.1159
43.0407
42.966
42.8919
42.8184
42.7456
42.6734
42.6019
42.5311
42.4609
42.3916
42.3229
42.2551
42.188
42.1217
42.0561
41.9915
41.9276
41.8646
41.8024
41.7411
41.6807
41.6212
41.5626
41.5049
41.4481
41.3923
41.3373
41.2834
41.2303
41.1783
41.1272
41.0771
41.0279
40.9797
40.9326
40.8864
40.8412
40.797
40.7538
40.7115
40.6703
40.6301
40.5909
40.5528
40.5156
40.4794
40.4442
40.41
40.3768
40.3446
40.3135
40.2833
40.254
40.2258
40.1986
40.1723
40.147
40.1226
40.0993
40.0768
40.0554
40.0348
40.0152
39.9965
39.9788
39.9619
39.946
39.9309
39.9168
39.9035
39.8911
39.8796
39.8689
39.859
39.85
39.8418
39.8344
39.8279
39.8221
39.8171
39.8128
39.8094
39.8066
39.8046
39.8034
39.8028
39.803
39.8038
39.8053
39.8075
39.8104
39.8139
39.818
39.8227
39.828
39.834
39.8405
39.8475
39.8552
39.8634
39.8721
39.8813
39.891
39.9012
39.9119
39.9231
39.9347
39.9467
39.9592
39.9721
39.9854
39.9991
40.0132
40.0276
40.0424
40.0575
40.073
40.0888
40.1048
40.1212
40.1378
40.1547
40.1719
40.1892
40.2069
40.2247
40.2427
40.261
40.2794
40.298
40.3167
40.3356
40.3546
40.3737
40.393
40.4123
40.4318
40.4513
40.4709
40.4905
40.5102
40.5299
40.5497
40.5694
40.5892
40.609
40.6287
40.6484
40.6681
40.6878
40.7074
40.7269
40.7464
40.7657
40.785
40.8042
40.8233
40.8422
40.8611
40.8798
40.8983
40.9167
40.935
40.953
40.9709
40.9887
41.0062
41.0235
41.0407
41.0576
41.0743
41.0908
41.107
41.123
41.1388
41.1543
41.1696
41.1846
41.1993
41.2138
41.2279
41.2418
41.2554
41.2688
41.2818
41.2945
41.3069
41.3189
41.3307
41.3421
41.3532
41.364
41.3744
41.3845
41.3943
41.4037
41.4128
41.4215
41.4298
41.4378
41.4455
41.4527
41.4596
41.4662
41.4723
41.4781
41.4835
41.4885
41.4932
41.4974
41.5013
41.5048
41.5079
41.5107
41.513
41.515
41.5165
41.5177
41.5185
41.5189
48.9897
48.9873
48.9824
48.9754
48.9661
48.955
48.9418
48.927
48.9104
48.8922
48.8724
48.8509
48.8279
48.8034
48.7773
48.7497
48.7206
48.6899
48.6578
48.6241
48.589
48.5524
48.5143
48.4748
48.4339
48.3915
48.3477
48.3026
48.2561
48.2082
48.159
48.1085
48.0567
48.0036
47.9493
47.8938
47.8371
47.7792
47.7201
47.6599
47.5986
47.5362
47.4728
47.4084
47.3429
47.2765
47.2091
47.1409
47.0717
47.0017
46.9308
46.8592
46.7867
46.7136
46.6397
46.5651
46.4898
46.414
46.3375
46.2605
46.1829
46.1048
46.0263
45.9473
45.8679
45.7881
45.708
45.6275
45.5468
45.4658
45.3846
45.3031
45.2215
45.1398
45.0579
44.9759
44.8939
44.8119
44.7298
44.6478
44.5659
44.484
44.4022
44.3206
44.2392
44.1579
44.0769
43.9961
43.9156
43.8354
43.7555
43.676
43.5969
43.5181
43.4398
43.3619
43.2845
43.2076
43.1312
43.0554
42.9801
42.9054
42.8312
42.7577
42.6849
42.6127
42.5412
42.4703
42.4002
42.3308
42.2622
42.1943
42.1272
42.0609
41.9954
41.9307
41.8668
41.8038
41.7417
41.6804
41.62
41.5605
41.5018
41.4442
41.3874
41.3315
41.2766
41.2227
41.1697
41.1176
41.0665
41.0164
40.9673
40.9191
40.872
40.8258
40.7806
40.7365
40.6933
40.6511
40.6099
40.5698
40.5306
40.4924
40.4553
40.4191
40.384
40.3498
40.3167
40.2845
40.2534
40.2232
40.194
40.1658
40.1386
40.1124
40.0871
40.0628
40.0395
40.0171
39.9957
39.9752
39.9556
39.937
39.9193
39.9025
39.8866
39.8716
39.8575