/*--------------------------------*- C++ -*----------------------------------*\
| =========                 |                                                 |
| \\      /  F ield         | OpenFOAM: The Open Source CFD Toolbox           |
|  \\    /   O peration     | Version:  2212                                  |
|   \\  /    A nd           | Website:  www.openfoam.com                      |
|    \\/     M anipulation  |                                                 |
\*---------------------------------------------------------------------------*/
FoamFile
{
    version     2.0;
    format      ascii;
    arch        "LSB;label=32;scalar=64";
    class       volScalarField;
    location    "840";
    object      p_rgh_0;
}
// * * * * * * * * * * * * * * * * * * * * * * * * * * * * * * * * * * * * * //

dimensions      [1 -1 -2 0 0 0 0];

internalField   nonuniform List<scalar> 
204800
(
49.5456
49.5448
49.542
49.5379
49.5318
49.524
49.5141
49.5021
49.4881
49.4721
49.4541
49.4343
49.4127
49.3893
49.3643
49.3376
49.3093
49.2794
49.248
49.2149
49.1804
49.1443
49.1067
49.0676
49.027
48.985
48.9416
48.8967
48.8505
48.8029
48.7539
48.7036
48.652
48.5991
48.545
48.4896
48.433
48.3753
48.3163
48.2562
48.1951
48.1328
48.0695
48.0051
47.9397
47.8734
47.8061
47.7379
47.6688
47.5988
47.528
47.4564
47.384
47.3108
47.2369
47.1624
47.0871
47.0113
46.9348
46.8578
46.7802
46.7021
46.6236
46.5446
46.4651
46.3853
46.3052
46.2247
46.1439
46.0628
45.9816
45.9001
45.8184
45.7366
45.6546
45.5726
45.4905
45.4083
45.3262
45.2441
45.162
45.08
44.9982
44.9164
44.8348
44.7534
44.6723
44.5914
44.5107
44.4303
44.3503
44.2706
44.1913
44.1124
44.0339
43.9558
43.8782
43.8011
43.7245
43.6485
43.573
43.498
43.4237
43.35
43.2769
43.2045
43.1327
43.0616
42.9913
42.9216
42.8527
42.7846
42.7172
42.6506
42.5848
42.5198
42.4557
42.3924
42.3299
42.2683
42.2076
42.1478
42.0889
42.0309
41.9738
41.9176
41.8624
41.8081
41.7547
41.7024
41.6509
41.6005
41.551
41.5025
41.455
41.4085
41.363
41.3184
41.2749
41.2323
41.1908
41.1503
41.1107
41.0722
41.0347
40.9981
40.9626
40.9281
40.8946
40.862
40.8305
40.8
40.7704
40.7418
40.7143
40.6876
40.662
40.6373
40.6136
40.5908
40.569
40.5482
40.5282
40.5092
40.4911
40.474
40.4577
40.4423
40.4278
40.4143
40.4015
40.3897
40.3787
40.3685
40.3592
40.3507
40.343
40.3361
40.33
40.3247
40.3202
40.3164
40.3134
40.3111
40.3096
40.3087
40.3086
40.3092
40.3104
40.3123
40.3149
40.3181
40.322
40.3264
40.3315
40.3372
40.3435
40.3503
40.3577
40.3656
40.3741
40.3831
40.3926
40.4026
40.413
40.424
40.4354
40.4472
40.4595
40.4722
40.4853
40.4988
40.5127
40.5269
40.5415
40.5564
40.5717
40.5873
40.6032
40.6194
40.6358
40.6526
40.6696
40.6868
40.7043
40.7219
40.7398
40.7579
40.7762
40.7946
40.8132
40.832
40.8508
40.8699
40.889
40.9082
40.9275
40.9469
40.9664
40.9859
41.0055
41.0251
41.0448
41.0645
41.0841
41.1038
41.1235
41.1431
41.1627
41.1823
41.2018
41.2212
41.2406
41.2599
41.2791
41.2982
41.3172
41.3361
41.3549
41.3735
41.392
41.4104
41.4286
41.4466
41.4644
41.4821
41.4996
41.5169
41.534
41.5508
41.5675
41.5839
41.6002
41.6161
41.6319
41.6473
41.6626
41.6775
41.6922
41.7067
41.7208
41.7347
41.7483
41.7615
41.7745
41.7872
41.7996
41.8116
41.8234
41.8348
41.8459
41.8566
41.8671
41.8771
41.8869
41.8963
41.9053
41.914
41.9224
41.9304
41.938
41.9452
41.9521
41.9586
41.9648
41.9706
41.976
41.981
41.9856
41.9899
41.9938
41.9973
42.0004
42.0031
42.0054
42.0074
42.0089
42.0101
42.0109
42.0113
49.4651
49.463
49.4586
49.4523
49.444
49.434
49.4222
49.4087
49.3935
49.3766
49.3581
49.3379
49.316
49.2925
49.2674
49.2407
49.2124
49.1825
49.1511
49.1181
49.0835
49.0475
49.0099
48.9709
48.9304
48.8885
48.8451
48.8003
48.7541
48.7066
48.6577
48.6075
48.556
48.5032
48.4492
48.3939
48.3374
48.2797
48.2209
48.1609
48.0999
48.0377
47.9745
47.9102
47.845
47.7788
47.7116
47.6435
47.5745
47.5047
47.434
47.3625
47.2902
47.2172
47.1434
47.069
46.9939
46.9182
46.8419
46.765
46.6875
46.6096
46.5312
46.4523
46.373
46.2934
46.2134
46.133
46.0524
45.9715
45.8903
45.809
45.7274
45.6458
45.564
45.4821
45.4001
45.3181
45.2362
45.1542
45.0723
44.9904
44.9087
44.8271
44.7457
44.6644
44.5834
44.5026
44.4221
44.3419
44.262
44.1825
44.1033
44.0245
43.9462
43.8683
43.7908
43.7139
43.6374
43.5615
43.4861
43.4113
43.3371
43.2635
43.1906
43.1183
43.0467
42.9757
42.9055
42.836
42.7672
42.6992
42.6319
42.5654
42.4998
42.4349
42.3709
42.3077
42.2454
42.1839
42.1233
42.0636
42.0048
41.9469
41.8899
41.8338
41.7787
41.7245
41.6713
41.619
41.5677
41.5173
41.4679
41.4195
41.3721
41.3257
41.2802
41.2358
41.1923
41.1499
41.1084
41.0679
41.0285
40.99
40.9526
40.9161
40.8807
40.8462
40.8127
40.7803
40.7488
40.7183
40.6888
40.6603
40.6328
40.6062
40.5806
40.556
40.5323
40.5096
40.4879
40.467
40.4471
40.4282
40.4101
40.393
40.3768
40.3614
40.347
40.3334
40.3207
40.3089
40.2979
40.2878
40.2785
40.27
40.2623
40.2554
40.2494
40.2441
40.2396
40.2358
40.2328
40.2305
40.229
40.2282
40.228
40.2286
40.2299
40.2318
40.2343
40.2376
40.2414
40.2459
40.2509
40.2566
40.2629
40.2697
40.2771
40.285
40.2935
40.3024
40.3119
40.3219
40.3323
40.3433
40.3547
40.3665
40.3787
40.3914
40.4045
40.418
40.4318
40.446
40.4606
40.4755
40.4908
40.5063
40.5222
40.5384
40.5548
40.5715
40.5885
40.6057
40.6231
40.6408
40.6586
40.6767
40.6949
40.7133
40.7319
40.7506
40.7695
40.7884
40.8075
40.8267
40.846
40.8654
40.8848
40.9043
40.9239
40.9435
40.9631
40.9827
41.0024
41.022
41.0416
41.0612
41.0808
41.1003
41.1198
41.1392
41.1586
41.1778
41.197
41.2161
41.235
41.2539
41.2726
41.2912
41.3097
41.328
41.3462
41.3642
41.382
41.3996
41.4171
41.4343
41.4514
41.4682
41.4849
41.5013
41.5175
41.5334
41.5491
41.5646
41.5798
41.5947
41.6094
41.6238
41.6379
41.6518
41.6653
41.6786
41.6915
41.7042
41.7165
41.7286
41.7403
41.7517
41.7628
41.7735
41.7839
41.794
41.8037
41.8131
41.8221
41.8308
41.8391
41.8471
41.8547
41.8619
41.8688
41.8753
41.8815
41.8872
41.8926
41.8976
41.9023
41.9065
41.9104
41.9139
41.917
41.9197
41.922
41.924
41.9255
41.9267
41.9275
41.9279
49.4477
49.4456
49.4412
49.435
49.4267
49.4167
49.4048
49.3914
49.3761
49.3593
49.3407
49.3204
49.2985
49.275
49.2499
49.2231
49.1948
49.1649
49.1334
49.1004
49.0658
49.0298
48.9922
48.9531
48.9126
48.8707
48.8273
48.7825
48.7363
48.6888
48.6399
48.5897
48.5382
48.4854
48.4313
48.376
48.3195
48.2619
48.203
48.1431
48.082
48.0198
47.9566
47.8923
47.8271
47.7609
47.6937
47.6256
47.5566
47.4867
47.4161
47.3446
47.2723
47.1993
47.1255
47.0511
46.976
46.9003
46.8239
46.7471
46.6696
46.5917
46.5133
46.4344
46.3551
46.2755
46.1954
46.1151
46.0345
45.9536
45.8724
45.7911
45.7095
45.6279
45.5461
45.4642
45.3822
45.3003
45.2183
45.1363
45.0544
44.9726
44.8908
44.8092
44.7278
44.6466
44.5656
44.4848
44.4043
44.3241
44.2442
44.1647
44.0855
44.0067
43.9284
43.8505
43.773
43.6961
43.6196
43.5437
43.4683
43.3936
43.3194
43.2458
43.1728
43.1005
43.0289
42.958
42.8878
42.8182
42.7495
42.6815
42.6142
42.5478
42.4821
42.4173
42.3532
42.2901
42.2277
42.1663
42.1057
42.046
41.9872
41.9293
41.8723
41.8163
41.7611
41.707
41.6537
41.6015
41.5501
41.4998
41.4504
41.402
41.3546
41.3082
41.2628
41.2183
41.1749
41.1324
41.091
41.0505
41.0111
40.9726
40.9352
40.8987
40.8633
40.8289
40.7954
40.763
40.7315
40.701
40.6715
40.643
40.6155
40.589
40.5634
40.5388
40.5151
40.4924
40.4706
40.4498
40.4299
40.411
40.3929
40.3758
40.3596
40.3443
40.3298
40.3163
40.3036
40.2918
40.2808
40.2707
40.2614
40.2529
40.2452
40.2384
40.2323
40.227
40.2225
40.2188
40.2158
40.2135
40.212
40.2112
40.211
40.2116
40.2129
40.2148
40.2174
40.2206
40.2245
40.2289
40.234
40.2397
40.2459
40.2528
40.2602
40.2681
40.2766
40.2855
40.295
40.305
40.3155
40.3264
40.3378
40.3496
40.3619
40.3746
40.3876
40.4011
40.415
40.4292
40.4438
40.4587
40.474
40.4895
40.5054
40.5216
40.538
40.5547
40.5717
40.5889
40.6063
40.624
40.6418
40.6599
40.6781
40.6965
40.7151
40.7338
40.7527
40.7716
40.7907
40.8099
40.8292
40.8486
40.868
40.8875
40.9071
40.9267
40.9463
40.9659
40.9856
41.0052
41.0248
41.0444
41.064
41.0835
41.103
41.1224
41.1418
41.161
41.1802
41.1993
41.2183
41.2371
41.2559
41.2745
41.2929
41.3112
41.3294
41.3474
41.3652
41.3829
41.4003
41.4176
41.4346
41.4515
41.4681
41.4845
41.5007
41.5166
41.5323
41.5478
41.563
41.5779
41.5926
41.607
41.6211
41.635
41.6485
41.6618
41.6747
41.6874
41.6997
41.7118
41.7235
41.7349
41.746
41.7567
41.7671
41.7772
41.7869
41.7963
41.8053
41.814
41.8223
41.8303
41.8379
41.8451
41.852
41.8585
41.8647
41.8704
41.8758
41.8808
41.8855
41.8897
41.8936
41.8971
41.9002
41.9029
41.9052
41.9072
41.9087
41.9099
41.9107
41.9111
49.3748
49.3723
49.3673
49.3601
49.3508
49.3398
49.327
49.3126
49.2967
49.2792
49.2601
49.2395
49.2174
49.1936
49.1683
49.1415
49.1131
49.0831
49.0516
49.0185
48.984
48.9479
48.9103
48.8713
48.8308
48.7889
48.7455
48.7008
48.6546
48.6071
48.5583
48.5081
48.4566
48.4039
48.3499
48.2947
48.2382
48.1806
48.1218
48.0619
48.0009
47.9388
47.8757
47.8115
47.7463
47.6801
47.613
47.545
47.4761
47.4063
47.3357
47.2643
47.1921
47.1192
47.0455
46.9712
46.8962
46.8205
46.7443
46.6675
46.5901
46.5123
46.434
46.3552
46.276
46.1964
46.1165
46.0363
45.9557
45.8749
45.7939
45.7126
45.6312
45.5496
45.4679
45.3861
45.3043
45.2224
45.1405
45.0586
44.9768
44.8951
44.8135
44.732
44.6506
44.5695
44.4886
44.4079
44.3275
44.2474
44.1676
44.0882
44.0091
43.9304
43.8522
43.7744
43.697
43.6202
43.5438
43.468
43.3927
43.3181
43.244
43.1705
43.0976
43.0254
42.9539
42.883
42.8129
42.7435
42.6748
42.6069
42.5397
42.4734
42.4078
42.343
42.2791
42.216
42.1538
42.0924
42.0319
41.9723
41.9136
41.8558
41.7989
41.7429
41.6878
41.6337
41.5806
41.5284
41.4771
41.4269
41.3776
41.3292
41.2819
41.2356
41.1902
41.1458
41.1024
41.06
41.0187
40.9783
40.9389
40.9005
40.8631
40.8267
40.7913
40.757
40.7236
40.6912
40.6598
40.6293
40.5999
40.5715
40.544
40.5175
40.4919
40.4674
40.4438
40.4211
40.3994
40.3786
40.3588
40.3398
40.3218
40.3047
40.2886
40.2733
40.2589
40.2453
40.2327
40.2209
40.2099
40.1998
40.1906
40.1821
40.1745
40.1677
40.1616
40.1564
40.1519
40.1481
40.1452
40.1429
40.1414
40.1406
40.1405
40.1411
40.1423
40.1443
40.1469
40.1501
40.154
40.1585
40.1635
40.1692
40.1755
40.1823
40.1897
40.1976
40.2061
40.2151
40.2246
40.2346
40.245
40.256
40.2673
40.2792
40.2914
40.3041
40.3172
40.3307
40.3445
40.3587
40.3733
40.3882
40.4035
40.419
40.4349
40.451
40.4675
40.4842
40.5011
40.5183
40.5357
40.5534
40.5712
40.5893
40.6075
40.6259
40.6444
40.6631
40.682
40.7009
40.72
40.7392
40.7585
40.7778
40.7972
40.8167
40.8363
40.8558
40.8754
40.895
40.9147
40.9343
40.9539
40.9735
40.993
41.0125
41.032
41.0514
41.0707
41.09
41.1091
41.1282
41.1471
41.166
41.1847
41.2033
41.2217
41.24
41.2582
41.2761
41.2939
41.3116
41.329
41.3462
41.3633
41.3801
41.3967
41.4131
41.4293
41.4452
41.4609
41.4763
41.4915
41.5064
41.5211
41.5355
41.5496
41.5634
41.5769
41.5902
41.6031
41.6158
41.6281
41.6401
41.6518
41.6632
41.6743
41.685
41.6954
41.7055
41.7152
41.7245
41.7336
41.7422
41.7505
41.7585
41.7661
41.7733
41.7802
41.7867
41.7928
41.7986
41.804
41.809
41.8136
41.8179
41.8217
41.8252
41.8283
41.831
41.8334
41.8353
41.8369
41.838
41.8388
41.8392
49.3462
49.3438
49.3388
49.3318
49.3226
49.3116
49.2989
49.2846
49.2686
49.2511
49.232
49.2114
49.1892
49.1654
49.14
49.1131
49.0846
49.0546
49.0231
48.99
48.9554
48.9193
48.8817
48.8426
48.8021
48.7601
48.7167
48.6719
48.6258
48.5782
48.5294
48.4792
48.4277
48.3749
48.3209
48.2657
48.2092
48.1516
48.0928
48.0329
47.9718
47.9097
47.8466
47.7824
47.7172
47.651
47.5839
47.5158
47.4469
47.3771
47.3065
47.2351
47.1629
47.0899
47.0163
46.9419
46.8669
46.7912
46.715
46.6382
46.5608
46.483
46.4046
46.3258
46.2466
46.1671
46.0871
46.0069
45.9263
45.8455
45.7645
45.6832
45.6018
45.5202
45.4385
45.3567
45.2748
45.1929
45.111
45.0292
44.9474
44.8656
44.784
44.7025
44.6212
44.54
44.4591
44.3784
44.298
44.2179
44.1381
44.0587
43.9796
43.901
43.8227
43.7449
43.6676
43.5907
43.5144
43.4385
43.3633
43.2886
43.2145
43.141
43.0682
42.996
42.9244
42.8536
42.7835
42.7141
42.6454
42.5775
42.5103
42.444
42.3784
42.3137
42.2497
42.1867
42.1244
42.0631
42.0026
41.943
41.8842
41.8264
41.7696
41.7136
41.6586
41.6045
41.5513
41.4991
41.4479
41.3977
41.3484
41.3001
41.2527
41.2064
41.161
41.1167
41.0733
41.031
40.9896
40.9492
40.9098
40.8715
40.8341
40.7977
40.7624
40.728
40.6946
40.6622
40.6308
40.6004
40.571
40.5426
40.5151
40.4886
40.4631
40.4386
40.415
40.3923
40.3706
40.3499
40.33
40.3111
40.2932
40.2761
40.2599
40.2446
40.2303
40.2167
40.2041
40.1923
40.1814
40.1713
40.1621
40.1536
40.146
40.1392
40.1332
40.1279
40.1235
40.1198
40.1168
40.1146
40.1131
40.1123
40.1122
40.1128
40.1141
40.116
40.1186
40.1219
40.1258
40.1303
40.1354
40.1411
40.1473
40.1542
40.1616
40.1695
40.178
40.187
40.1965
40.2065
40.217
40.2279
40.2393
40.2512
40.2634
40.2761
40.2892
40.3027
40.3166
40.3308
40.3454
40.3603
40.3755
40.3911
40.407
40.4231
40.4396
40.4563
40.4732
40.4904
40.5079
40.5255
40.5434
40.5614
40.5797
40.5981
40.6166
40.6353
40.6542
40.6732
40.6922
40.7114
40.7307
40.7501
40.7695
40.789
40.8085
40.8281
40.8477
40.8673
40.887
40.9066
40.9262
40.9458
40.9653
40.9849
41.0043
41.0237
41.043
41.0623
41.0815
41.1005
41.1195
41.1383
41.157
41.1756
41.1941
41.2124
41.2305
41.2485
41.2663
41.2839
41.3013
41.3186
41.3356
41.3525
41.3691
41.3855
41.4016
41.4176
41.4333
41.4487
41.4639
41.4788
41.4935
41.5078
41.522
41.5358
41.5493
41.5626
41.5755
41.5882
41.6005
41.6125
41.6242
41.6356
41.6467
41.6574
41.6678
41.6778
41.6875
41.6969
41.7059
41.7146
41.7229
41.7309
41.7385
41.7457
41.7526
41.7591
41.7652
41.771
41.7764
41.7814
41.786
41.7902
41.7941
41.7976
41.8007
41.8034
41.8058
41.8077
41.8092
41.8104
41.8112
41.8116
49.2795
49.277
49.2718
49.2644
49.2548
49.2434
49.2302
49.2155
49.1991
49.1812
49.1618
49.1409
49.1184
49.0944
49.0689
49.0419
49.0133
48.9832
48.9515
48.9184
48.8837
48.8476
48.81
48.7709
48.7303
48.6884
48.645
48.6002
48.554
48.5065
48.4576
48.4075
48.356
48.3032
48.2492
48.194
48.1376
48.08
48.0212
47.9613
47.9003
47.8382
47.7751
47.7109
47.6458
47.5796
47.5125
47.4445
47.3756
47.3059
47.2353
47.1639
47.0918
47.0189
46.9452
46.8709
46.7959
46.7203
46.6441
46.5674
46.49
46.4122
46.3339
46.2552
46.1761
46.0965
46.0167
45.9365
45.856
45.7752
45.6942
45.613
45.5316
45.4501
45.3684
45.2867
45.2049
45.1231
45.0412
44.9594
44.8776
44.796
44.7144
44.633
44.5517
44.4706
44.3897
44.3091
44.2288
44.1487
44.069
43.9896
43.9106
43.832
43.7538
43.6761
43.5988
43.522
43.4457
43.37
43.2948
43.2201
43.1461
43.0727
42.9999
42.9278
42.8563
42.7855
42.7155
42.6461
42.5775
42.5096
42.4426
42.3763
42.3108
42.2461
42.1822
42.1192
42.057
41.9957
41.9353
41.8757
41.8171
41.7593
41.7025
41.6466
41.5916
41.5376
41.4845
41.4324
41.3812
41.331
41.2818
41.2335
41.1862
41.14
41.0947
41.0504
41.007
40.9647
40.9234
40.8831
40.8438
40.8054
40.7681
40.7318
40.6965
40.6622
40.6288
40.5965
40.5652
40.5348
40.5054
40.477
40.4496
40.4232
40.3977
40.3732
40.3497
40.327
40.3054
40.2847
40.2649
40.246
40.2281
40.211
40.1949
40.1797
40.1653
40.1518
40.1392
40.1275
40.1166
40.1065
40.0973
40.0889
40.0813
40.0745
40.0686
40.0633
40.0589
40.0552
40.0523
40.0501
40.0486
40.0478
40.0478
40.0484
40.0497
40.0517
40.0543
40.0576
40.0615
40.066
40.0711
40.0768
40.0831
40.09
40.0974
40.1054
40.1138
40.1229
40.1324
40.1424
40.1529
40.1638
40.1752
40.1871
40.1994
40.2121
40.2252
40.2386
40.2525
40.2667
40.2813
40.2963
40.3115
40.3271
40.343
40.3591
40.3756
40.3923
40.4092
40.4265
40.4439
40.4615
40.4794
40.4974
40.5157
40.5341
40.5526
40.5713
40.5902
40.6092
40.6282
40.6474
40.6667
40.6861
40.7055
40.725
40.7445
40.7641
40.7837
40.8033
40.8229
40.8425
40.8622
40.8817
40.9013
40.9208
40.9403
40.9596
40.979
40.9982
41.0174
41.0364
41.0554
41.0742
41.0929
41.1115
41.1299
41.1482
41.1664
41.1843
41.2021
41.2197
41.2372
41.2544
41.2714
41.2883
41.3049
41.3213
41.3374
41.3533
41.369
41.3844
41.3996
41.4145
41.4292
41.4436
41.4577
41.4715
41.485
41.4983
41.5112
41.5238
41.5362
41.5482
41.5599
41.5713
41.5823
41.593
41.6034
41.6135
41.6232
41.6325
41.6416
41.6502
41.6585
41.6665
41.6741
41.6813
41.6882
41.6947
41.7008
41.7066
41.7119
41.7169
41.7216
41.7258
41.7297
41.7332
41.7363
41.739
41.7413
41.7432
41.7448
41.746
41.7467
41.7471
49.2436
49.2411
49.236
49.2288
49.2193
49.2081
49.195
49.1803
49.164
49.1461
49.1267
49.1057
49.0832
49.0592
49.0336
49.0065
48.9778
48.9476
48.9159
48.8827
48.848
48.8118
48.7741
48.735
48.6944
48.6524
48.6089
48.5641
48.5179
48.4703
48.4214
48.3712
48.3197
48.2669
48.2129
48.1576
48.1011
48.0435
47.9847
47.9248
47.8637
47.8016
47.7385
47.6743
47.6091
47.5429
47.4758
47.4078
47.3389
47.2691
47.1985
47.1271
47.0549
46.9819
46.9083
46.8339
46.7589
46.6833
46.6071
46.5303
46.4529
46.3751
46.2968
46.218
46.1389
46.0593
45.9794
45.8992
45.8187
45.7379
45.6569
45.5756
45.4942
45.4127
45.331
45.2493
45.1674
45.0856
45.0037
44.9219
44.8401
44.7584
44.6768
44.5954
44.5141
44.433
44.3521
44.2715
44.1911
44.1111
44.0313
43.9519
43.8729
43.7943
43.7161
43.6383
43.561
43.4842
43.4079
43.3322
43.257
43.1824
43.1083
43.0349
42.9621
42.89
42.8185
42.7477
42.6776
42.6083
42.5397
42.4718
42.4048
42.3385
42.273
42.2083
42.1444
42.0814
42.0192
41.9579
41.8975
41.838
41.7793
41.7216
41.6648
41.6089
41.5539
41.4999
41.4468
41.3947
41.3435
41.2933
41.2441
41.1959
41.1486
41.1024
41.0571
41.0128
40.9695
40.9272
40.8859
40.8456
40.8063
40.768
40.7307
40.6944
40.6591
40.6248
40.5915
40.5592
40.5278
40.4975
40.4682
40.4398
40.4124
40.386
40.3605
40.336
40.3125
40.2899
40.2683
40.2476
40.2278
40.209
40.1911
40.1741
40.158
40.1427
40.1284
40.115
40.1024
40.0907
40.0798
40.0698
40.0606
40.0522
40.0446
40.0379
40.0319
40.0267
40.0223
40.0186
40.0157
40.0135
40.0121
40.0113
40.0113
40.012
40.0133
40.0153
40.0179
40.0212
40.0251
40.0297
40.0348
40.0406
40.0469
40.0538
40.0612
40.0692
40.0777
40.0867
40.0963
40.1063
40.1168
40.1278
40.1392
40.1511
40.1634
40.1761
40.1892
40.2027
40.2166
40.2309
40.2455
40.2604
40.2757
40.2913
40.3072
40.3234
40.3398
40.3566
40.3735
40.3908
40.4082
40.4259
40.4438
40.4618
40.4801
40.4985
40.5171
40.5358
40.5546
40.5736
40.5927
40.6119
40.6312
40.6506
40.67
40.6895
40.7091
40.7287
40.7483
40.7679
40.7875
40.8072
40.8268
40.8464
40.8659
40.8854
40.9049
40.9243
40.9436
40.9629
40.9821
41.0011
41.0201
41.0389
41.0576
41.0762
41.0947
41.113
41.1311
41.1491
41.1669
41.1845
41.2019
41.2192
41.2362
41.2531
41.2697
41.2861
41.3022
41.3181
41.3338
41.3493
41.3645
41.3794
41.394
41.4084
41.4225
41.4363
41.4499
41.4631
41.4761
41.4887
41.501
41.513
41.5247
41.5361
41.5472
41.5579
41.5683
41.5783
41.5881
41.5974
41.6064
41.6151
41.6234
41.6314
41.639
41.6462
41.6531
41.6596
41.6657
41.6715
41.6768
41.6818
41.6865
41.6907
41.6946
41.6981
41.7012
41.7039
41.7062
41.7082
41.7097
41.7109
41.7117
41.712
49.1818
49.1793
49.1742
49.1668
49.1572
49.1458
49.1325
49.1176
49.1011
49.083
49.0634
49.0422
49.0195
48.9953
48.9696
48.9423
48.9136
48.8833
48.8515
48.8182
48.7834
48.7472
48.7094
48.6702
48.6296
48.5875
48.5441
48.4992
48.453
48.4054
48.3565
48.3062
48.2547
48.2019
48.1479
48.0926
48.0361
47.9784
47.9196
47.8597
47.7987
47.7365
47.6734
47.6092
47.544
47.4778
47.4107
47.3427
47.2738
47.204
47.1334
47.062
46.9898
46.9169
46.8432
46.7689
46.6939
46.6182
46.542
46.4652
46.3879
46.3101
46.2318
46.153
46.0739
45.9943
45.9145
45.8342
45.7537
45.673
45.592
45.5107
45.4294
45.3478
45.2662
45.1844
45.1026
45.0208
44.939
44.8571
44.7754
44.6937
44.6121
44.5307
44.4494
44.3684
44.2875
44.2069
44.1266
44.0465
43.9668
43.8875
43.8085
43.7299
43.6517
43.574
43.4967
43.4199
43.3437
43.268
43.1928
43.1182
43.0442
42.9708
42.898
42.8259
42.7545
42.6837
42.6137
42.5444
42.4758
42.408
42.3409
42.2747
42.2092
42.1446
42.0808
42.0178
41.9556
41.8944
41.834
41.7745
41.7159
41.6582
41.6014
41.5456
41.4906
41.4367
41.3836
41.3316
41.2804
41.2303
41.1811
41.1329
41.0857
41.0395
40.9942
40.95
40.9067
40.8645
40.8232
40.783
40.7437
40.7054
40.6682
40.6319
40.5967
40.5624
40.5291
40.4969
40.4656
40.4353
40.406
40.3777
40.3503
40.3239
40.2985
40.2741
40.2506
40.228
40.2065
40.1858
40.1661
40.1473
40.1294
40.1124
40.0964
40.0812
40.0669
40.0535
40.0409
40.0293
40.0184
40.0084
39.9993
39.9909
39.9834
39.9767
39.9707
39.9656
39.9612
39.9576
39.9547
39.9526
39.9511
39.9504
39.9504
39.9511
39.9525
39.9545
39.9572
39.9605
39.9644
39.969
39.9742
39.98
39.9863
39.9932
40.0007
40.0087
40.0172
40.0263
40.0358
40.0459
40.0564
40.0674
40.0789
40.0908
40.1031
40.1158
40.129
40.1425
40.1564
40.1707
40.1853
40.2003
40.2156
40.2312
40.2471
40.2633
40.2798
40.2965
40.3135
40.3307
40.3482
40.3659
40.3838
40.4018
40.4201
40.4385
40.4571
40.4759
40.4947
40.5137
40.5328
40.552
40.5713
40.5907
40.6102
40.6297
40.6492
40.6688
40.6884
40.7081
40.7277
40.7473
40.767
40.7866
40.8061
40.8257
40.8451
40.8645
40.8839
40.9031
40.9223
40.9414
40.9603
40.9792
40.9979
41.0165
41.0349
41.0532
41.0714
41.0893
41.1071
41.1248
41.1422
41.1594
41.1765
41.1933
41.2099
41.2263
41.2425
41.2584
41.2741
41.2895
41.3047
41.3196
41.3343
41.3487
41.3628
41.3766
41.3901
41.4034
41.4163
41.429
41.4413
41.4533
41.465
41.4764
41.4874
41.4982
41.5086
41.5186
41.5283
41.5377
41.5467
41.5554
41.5637
41.5716
41.5792
41.5865
41.5933
41.5998
41.606
41.6117
41.6171
41.6221
41.6267
41.631
41.6348
41.6383
41.6414
41.6441
41.6465
41.6484
41.65
41.6511
41.6519
41.6523
49.1412
49.1387
49.1337
49.1265
49.1171
49.1058
49.0926
49.0778
49.0613
49.0432
49.0236
49.0024
48.9797
48.9554
48.9296
48.9023
48.8735
48.8431
48.8113
48.7779
48.743
48.7067
48.6689
48.6296
48.5889
48.5468
48.5033
48.4584
48.4121
48.3644
48.3154
48.2651
48.2136
48.1607
48.1066
48.0513
47.9948
47.9371
47.8782
47.8182
47.7571
47.695
47.6317
47.5675
47.5023
47.436
47.3689
47.3008
47.2318
47.162
47.0914
47.0199
46.9477
46.8747
46.801
46.7266
46.6516
46.5759
46.4996
46.4228
46.3454
46.2676
46.1892
46.1104
46.0312
45.9517
45.8717
45.7915
45.7109
45.6301
45.5491
45.4678
45.3864
45.3048
45.2231
45.1413
45.0595
44.9776
44.8957
44.8139
44.7321
44.6504
44.5688
44.4873
44.406
44.3249
44.244
44.1634
44.083
44.003
43.9232
43.8439
43.7648
43.6862
43.608
43.5303
43.453
43.3762
43.2999
43.2242
43.149
43.0743
43.0003
42.9269
42.8541
42.782
42.7106
42.6398
42.5698
42.5004
42.4319
42.364
42.297
42.2307
42.1652
42.1006
42.0368
41.9738
41.9117
41.8504
41.79
41.7305
41.6719
41.6142
41.5574
41.5016
41.4467
41.3927
41.3397
41.2876
41.2365
41.1864
41.1372
41.089
41.0418
40.9956
40.9504
40.9061
40.8629
40.8207
40.7794
40.7392
40.6999
40.6617
40.6245
40.5882
40.553
40.5188
40.4855
40.4533
40.422
40.3917
40.3625
40.3342
40.3068
40.2805
40.2551
40.2307
40.2072
40.1847
40.1631
40.1425
40.1228
40.1041
40.0862
40.0693
40.0532
40.0381
40.0238
40.0104
39.9979
39.9863
39.9755
39.9655
39.9564
39.9481
39.9406
39.9339
39.928
39.9229
39.9185
39.9149
39.9121
39.91
39.9086
39.9079
39.9079
39.9087
39.9101
39.9121
39.9148
39.9182
39.9222
39.9268
39.932
39.9378
39.9441
39.9511
39.9586
39.9666
39.9752
39.9843
39.9939
40.004
40.0145
40.0256
40.037
40.049
40.0613
40.0741
40.0873
40.1008
40.1148
40.1291
40.1437
40.1587
40.174
40.1897
40.2056
40.2218
40.2383
40.2551
40.2721
40.2894
40.3069
40.3246
40.3425
40.3606
40.3789
40.3973
40.4159
40.4347
40.4536
40.4726
40.4917
40.5109
40.5303
40.5497
40.5691
40.5887
40.6082
40.6278
40.6475
40.6671
40.6868
40.7064
40.7261
40.7457
40.7653
40.7848
40.8043
40.8237
40.8431
40.8624
40.8815
40.9006
40.9196
40.9385
40.9572
40.9758
40.9943
41.0126
41.0307
41.0487
41.0665
41.0842
41.1016
41.1189
41.1359
41.1528
41.1694
41.1858
41.202
41.2179
41.2336
41.249
41.2642
41.2791
41.2938
41.3082
41.3223
41.3361
41.3497
41.3629
41.3759
41.3885
41.4009
41.4129
41.4246
41.436
41.447
41.4578
41.4682
41.4782
41.4879
41.4973
41.5063
41.515
41.5233
41.5313
41.5389
41.5461
41.553
41.5595
41.5656
41.5714
41.5767
41.5818
41.5864
41.5906
41.5945
41.598
41.6011
41.6038
41.6061
41.6081
41.6096
41.6108
41.6116
41.612
49.0831
49.0806
49.0756
49.0684
49.059
49.0477
49.0345
49.0196
49.003
48.9848
48.965
48.9437
48.9208
48.8965
48.8705
48.8431
48.8142
48.7837
48.7517
48.7183
48.6834
48.6469
48.6091
48.5697
48.529
48.4868
48.4432
48.3982
48.3519
48.3042
48.2552
48.2048
48.1532
48.1003
48.0462
47.9908
47.9342
47.8765
47.8176
47.7576
47.6964
47.6342
47.571
47.5067
47.4414
47.3752
47.308
47.2399
47.1709
47.101
47.0304
46.9589
46.8866
46.8136
46.7399
46.6655
46.5904
46.5147
46.4384
46.3615
46.2842
46.2063
46.1279
46.0491
45.9699
45.8903
45.8103
45.73
45.6494
45.5686
45.4876
45.4063
45.3248
45.2432
45.1615
45.0797
44.9979
44.916
44.8341
44.7522
44.6704
44.5887
44.5071
44.4256
44.3443
44.2632
44.1823
44.1017
44.0213
43.9412
43.8615
43.7821
43.7031
43.6244
43.5462
43.4685
43.3912
43.3144
43.2381
43.1624
43.0872
43.0126
42.9385
42.8651
42.7924
42.7203
42.6488
42.5781
42.5081
42.4387
42.3702
42.3024
42.2353
42.1691
42.1036
42.039
41.9752
41.9122
41.8501
41.7888
41.7285
41.669
41.6104
41.5528
41.496
41.4402
41.3853
41.3313
41.2783
41.2263
41.1752
41.1251
41.076
41.0278
40.9807
40.9345
40.8893
40.8451
40.8019
40.7597
40.7185
40.6783
40.6391
40.6009
40.5637
40.5275
40.4923
40.4581
40.4249
40.3926
40.3614
40.3312
40.302
40.2737
40.2464
40.2201
40.1948
40.1704
40.147
40.1245
40.103
40.0824
40.0627
40.044
40.0262
40.0093
39.9933
39.9782
39.964
39.9506
39.9382
39.9266
39.9158
39.9059
39.8968
39.8886
39.8811
39.8745
39.8686
39.8635
39.8592
39.8556
39.8528
39.8508
39.8494
39.8488
39.8489
39.8496
39.851
39.8531
39.8559
39.8593
39.8633
39.868
39.8732
39.879
39.8854
39.8924
39.9
39.908
39.9167
39.9258
39.9354
39.9455
39.9561
39.9672
39.9787
39.9907
40.003
40.0158
40.029
40.0426
40.0566
40.0709
40.0856
40.1006
40.116
40.1317
40.1476
40.1639
40.1804
40.1972
40.2142
40.2315
40.249
40.2668
40.2847
40.3028
40.3211
40.3396
40.3583
40.377
40.396
40.415
40.4341
40.4534
40.4727
40.4922
40.5116
40.5312
40.5508
40.5704
40.5901
40.6097
40.6294
40.6491
40.6687
40.6884
40.708
40.7275
40.747
40.7665
40.7858
40.8051
40.8243
40.8434
40.8624
40.8813
40.9
40.9186
40.9371
40.9554
40.9736
40.9916
41.0094
41.0271
41.0445
41.0618
41.0788
41.0957
41.1123
41.1287
41.1449
41.1608
41.1766
41.192
41.2072
41.2221
41.2368
41.2512
41.2653
41.2792
41.2927
41.306
41.3189
41.3316
41.3439
41.3559
41.3676
41.379
41.3901
41.4008
41.4112
41.4213
41.431
41.4404
41.4494
41.4581
41.4664
41.4744
41.482
41.4892
41.4961
41.5026
41.5087
41.5145
41.5198
41.5249
41.5295
41.5337
41.5376
41.5411
41.5442
41.5469
41.5492
41.5512
41.5527
41.5539
41.5547
41.5551
49.0395
49.0371
49.0322
49.0251
49.0158
49.0046
48.9915
48.9767
48.9602
48.942
48.9222
48.9009
48.878
48.8536
48.8276
48.8001
48.7711
48.7406
48.7085
48.675
48.64
48.6035
48.5655
48.5261
48.4853
48.443
48.3993
48.3543
48.3079
48.2601
48.211
48.1606
48.1089
48.0559
48.0017
47.9463
47.8896
47.8318
47.7729
47.7128
47.6516
47.5893
47.526
47.4616
47.3963
47.33
47.2627
47.1946
47.1255
47.0556
46.9848
46.9133
46.8409
46.7679
46.6941
46.6196
46.5444
46.4687
46.3923
46.3154
46.2379
46.16
46.0815
46.0027
45.9234
45.8437
45.7637
45.6834
45.6027
45.5218
45.4407
45.3594
45.2779
45.1962
45.1144
45.0326
44.9507
44.8687
44.7868
44.7048
44.623
44.5412
44.4595
44.378
44.2966
44.2155
44.1345
44.0539
43.9734
43.8933
43.8135
43.7341
43.655
43.5764
43.4981
43.4203
43.343
43.2662
43.1899
43.1141
43.0388
42.9642
42.8901
42.8167
42.7439
42.6718
42.6003
42.5296
42.4595
42.3902
42.3216
42.2537
42.1867
42.1204
42.0549
41.9903
41.9265
41.8635
41.8014
41.7401
41.6797
41.6203
41.5617
41.504
41.4473
41.3914
41.3365
41.2826
41.2296
41.1776
41.1265
41.0764
41.0273
40.9791
40.932
40.8858
40.8406
40.7964
40.7532
40.711
40.6698
40.6297
40.5905
40.5523
40.5151
40.4789
40.4438
40.4096
40.3764
40.3442
40.313
40.2828
40.2536
40.2254
40.1981
40.1718
40.1465
40.1222
40.0988
40.0764
40.0549
40.0343
40.0147
39.996
39.9782
39.9614
39.9454
39.9304
39.9162
39.9029
39.8904
39.8789
39.8682
39.8583
39.8492
39.841
39.8336
39.827
39.8212
39.8161
39.8119
39.8084
39.8056
39.8036
39.8023
39.8017
39.8018
39.8026
39.8041
39.8062
39.809
39.8124
39.8165
39.8212
39.8265
39.8323
39.8388
39.8458
39.8534
39.8615
39.8702
39.8793
39.889
39.8992
39.9098
39.9209
39.9325
39.9445
39.9569
39.9697
39.983
39.9966
40.0106
40.025
40.0397
40.0548
40.0701
40.0858
40.1018
40.1181
40.1347
40.1515
40.1686
40.1859
40.2035
40.2212
40.2392
40.2574
40.2757
40.2942
40.3129
40.3317
40.3506
40.3697
40.3889
40.4082
40.4275
40.447
40.4665
40.4861
40.5057
40.5254
40.545
40.5647
40.5844
40.6041
40.6238
40.6435
40.6631
40.6827
40.7022
40.7217
40.7411
40.7604
40.7796
40.7987
40.8177
40.8366
40.8554
40.874
40.8925
40.9108
40.929
40.947
40.9649
40.9825
41
41.0173
41.0344
41.0512
41.0679
41.0843
41.1005
41.1165
41.1322
41.1476
41.1629
41.1778
41.1925
41.2069
41.221
41.2349
41.2484
41.2617
41.2747
41.2873
41.2997
41.3117
41.3234
41.3348
41.3459
41.3566
41.367
41.3771
41.3868
41.3962
41.4053
41.4139
41.4223
41.4302
41.4378
41.4451
41.4519
41.4585
41.4646
41.4704
41.4757
41.4808
41.4854
41.4896
41.4935
41.497
41.5001
41.5028
41.5052
41.5071
41.5087
41.5098
41.5106
41.511
48.9842
48.9818
48.977
48.9699
48.9607
48.9495
48.9364
48.9215
48.905
48.8868
48.8669
48.8455
48.8225
48.798
48.7719
48.7443
48.7152
48.6846
48.6524
48.6188
48.5837
48.5471
48.5091
48.4696
48.4287
48.3863
48.3426
48.2975
48.251
48.2031
48.154
48.1035
48.0517
47.9987
47.9444
47.8889
47.8322
47.7743
47.7153
47.6551
47.5939
47.5316
47.4682
47.4038
47.3384
47.272
47.2047
47.1364
47.0673
46.9973
46.9265
46.8549
46.7825
46.7094
46.6355
46.561
46.4858
46.41
46.3335
46.2566
46.179
46.101
46.0225
45.9436
45.8643
45.7845
45.7045
45.6241
45.5434
45.4624
45.3812
45.2999
45.2183
45.1366
45.0548
44.9729
44.8909
44.8089
44.7269
44.645
44.563
44.4812
44.3995
44.3179
44.2365
44.1553
44.0744
43.9936
43.9132
43.833
43.7532
43.6737
43.5946
43.5159
43.4377
43.3598
43.2825
43.2056
43.1293
43.0535
42.9782
42.9036
42.8295
42.7561
42.6832
42.6111
42.5396
42.4688
42.3988
42.3294
42.2608
42.193
42.1259
42.0596
41.9942
41.9295
41.8657
41.8027
41.7406
41.6793
41.619
41.5595
41.5009
41.4433
41.3865
41.3307
41.2758
41.2219
41.1689
41.1169
41.0658
41.0157
40.9666
40.9185
40.8714
40.8252
40.7801
40.7359
40.6927
40.6506
40.6094
40.5693
40.5301
40.4919
40.4548
40.4187
40.3835
40.3494
40.3162
40.2841
40.2529
40.2228
40.1936
40.1654
40.1382
40.1119
40.0867
40.0624
40.039
40.0166
39.9952
39.9747
39.9551
39.9365
39.9187
39.9019
39.886
39.871
39.8568
39.8436
39.8312