/*--------------------------------*- C++ -*----------------------------------*\
| =========                 |                                                 |
| \\      /  F ield         | OpenFOAM: The Open Source CFD Toolbox           |
|  \\    /   O peration     | Version:  2212                                  |
|   \\  /    A nd           | Website:  www.openfoam.com                      |
|    \\/     M anipulation  |                                                 |
\*---------------------------------------------------------------------------*/
FoamFile
{
    version     2.0;
    format      ascii;
    arch        "LSB;label=32;scalar=64";
    class       volScalarField;
    location    "650";
    object      p_rgh;
}
// * * * * * * * * * * * * * * * * * * * * * * * * * * * * * * * * * * * * * //

dimensions      [1 -1 -2 0 0 0 0];

internalField   nonuniform List<scalar> 
204800
(
46.76
46.7534
46.7437
46.7303
46.712
46.6889
46.6607
46.6278
46.59
46.5478
46.5011
46.4503
46.3954
46.3366
46.2739
46.2076
46.1375
46.0639
45.9868
45.9062
45.8222
45.7349
45.6443
45.5506
45.4538
45.3539
45.2511
45.1454
45.0369
44.9257
44.8118
44.6954
44.5765
44.4551
44.3314
44.2055
44.0774
43.9472
43.815
43.6809
43.5449
43.4072
43.2678
43.1268
42.9843
42.8404
42.6951
42.5486
42.4009
42.2521
42.1024
41.9517
41.8001
41.6478
41.4949
41.3413
41.1872
41.0327
40.8778
40.7226
40.5672
40.4116
40.256
40.1004
39.9449
39.7895
39.6344
39.4795
39.325
39.1709
39.0173
38.8642
38.7118
38.56
38.4089
38.2587
38.1093
37.9608
37.8132
37.6667
37.5212
37.3769
37.2337
37.0917
36.9509
36.8115
36.6734
36.5367
36.4014
36.2675
36.1352
36.0043
35.8751
35.7474
35.6213
35.4969
35.3742
35.2532
35.1339
35.0164
34.9006
34.7866
34.6745
34.5641
34.4557
34.349
34.2443
34.1414
34.0405
33.9414
33.8443
33.7491
33.6558
33.5645
33.4751
33.3876
33.3021
33.2185
33.1369
33.0572
32.9795
32.9037
32.8298
32.7579
32.6878
32.6197
32.5535
32.4892
32.4268
32.3663
32.3076
32.2508
32.1958
32.1427
32.0914
32.0418
31.9941
31.9481
31.9039
31.8615
31.8207
31.7817
31.7444
31.7087
31.6747
31.6423
31.6115
31.5823
31.5547
31.5286
31.5041
31.481
31.4595
31.4394
31.4208
31.4036
31.3878
31.3734
31.3603
31.3486
31.3382
31.329
31.3212
31.3145
31.3091
31.3049
31.3019
31.3
31.2993
31.2996
31.3011
31.3036
31.3071
31.3117
31.3172
31.3237
31.3312
31.3396
31.3489
31.359
31.3701
31.3819
31.3946
31.4081
31.4223
31.4373
31.453
31.4694
31.4865
31.5043
31.5227
31.5417
31.5613
31.5816
31.6023
31.6237
31.6455
31.6679
31.6907
31.714
31.7378
31.762
31.7866
31.8115
31.8369
31.8626
31.8887
31.9151
31.9418
31.9688
31.996
32.0236
32.0513
32.0793
32.1075
32.1359
32.1645
32.1932
32.2221
32.2511
32.2802
32.3095
32.3388
32.3683
32.3978
32.4273
32.4569
32.4865
32.5161
32.5458
32.5754
32.605
32.6345
32.6641
32.6935
32.7229
32.7522
32.7815
32.8106
32.8396
32.8685
32.8973
32.9259
32.9544
32.9828
33.0109
33.0389
33.0667
33.0943
33.1217
33.1489
33.1759
33.2026
33.2291
33.2554
33.2814
33.3071
33.3326
33.3578
33.3828
33.4074
33.4318
33.4559
33.4796
33.5031
33.5262
33.549
33.5715
33.5936
33.6154
33.6369
33.658
33.6788
33.6992
33.7192
33.7388
33.7581
33.777
33.7956
33.8137
33.8314
33.8488
33.8657
33.8823
33.8984
33.9142
33.9295
33.9444
33.9589
33.9729
33.9866
33.9998
34.0126
34.0249
34.0368
34.0483
34.0593
34.0699
34.08
34.0897
34.099
34.1078
34.1161
34.124
34.1314
34.1384
34.1449
34.151
34.1566
34.1617
34.1664
34.1706
34.1743
34.1776
34.1804
34.1827
34.1846
34.186
34.1869
34.1874
46.692
46.6856
46.6737
46.6568
46.6348
46.6083
46.5773
46.5421
46.5026
46.4592
46.4117
46.3604
46.3052
46.2462
46.1835
46.1171
46.0471
45.9735
45.8964
45.8159
45.7321
45.6449
45.5545
45.4609
45.3642
45.2645
45.1618
45.0563
44.948
44.8369
44.7232
44.607
44.4883
44.3671
44.2436
44.1179
43.99
43.8601
43.7281
43.5942
43.4584
43.3209
43.1818
43.041
42.8988
42.7551
42.6101
42.4638
42.3164
42.1679
42.0184
41.868
41.7167
41.5647
41.412
41.2587
41.1048
40.9506
40.796
40.641
40.4859
40.3306
40.1753
40.02
39.8647
39.7097
39.5548
39.4002
39.2459
39.0921
38.9388
38.786
38.6338
38.4823
38.3316
38.1816
38.0324
37.8842
37.7369
37.5907
37.4455
37.3014
37.1584
37.0167
36.8762
36.7371
36.5992
36.4628
36.3277
36.1941
36.062
35.9314
35.8024
35.675
35.5491
35.425
35.3025
35.1817
35.0626
34.9453
34.8298
34.716
34.6041
34.494
34.3857
34.2793
34.1747
34.0721
33.9713
33.8725
33.7755
33.6805
33.5874
33.4962
33.407
33.3197
33.2344
33.151
33.0695
32.99
32.9124
32.8367
32.763
32.6912
32.6213
32.5534
32.4873
32.4231
32.3609
32.3004
32.2419
32.1852
32.1303
32.0773
32.0261
31.9767
31.9291
31.8832
31.8391
31.7967
31.7561
31.7171
31.6799
31.6443
31.6103
31.578
31.5473
31.5182
31.4906
31.4646
31.4401
31.4172
31.3957
31.3757
31.3571
31.3399
31.3242
31.3098
31.2968
31.2851
31.2747
31.2656
31.2578
31.2512
31.2458
31.2416
31.2386
31.2367
31.236
31.2364
31.2378
31.2403
31.2439
31.2484
31.254
31.2605
31.268
31.2763
31.2856
31.2958
31.3068
31.3186
31.3313
31.3448
31.359
31.3739
31.3896
31.406
31.4231
31.4409
31.4592
31.4783
31.4979
31.5181
31.5388
31.5601
31.5819
31.6042
31.6271
31.6503
31.674
31.6982
31.7228
31.7477
31.773
31.7987
31.8248
31.8511
31.8778
31.9047
31.9319
31.9594
31.9871
32.0151
32.0432
32.0715
32.1001
32.1288
32.1576
32.1866
32.2157
32.2449
32.2742
32.3035
32.333
32.3625
32.392
32.4216
32.4512
32.4807
32.5103
32.5399
32.5694
32.5988
32.6283
32.6576
32.6869
32.7161
32.7451
32.7741
32.803
32.8317
32.8603
32.8887
32.917
32.9451
32.973
33.0008
33.0284
33.0557
33.0828
33.1098
33.1365
33.1629
33.1891
33.2151
33.2408
33.2663
33.2914
33.3163
33.341
33.3653
33.3893
33.413
33.4364
33.4595
33.4823
33.5047
33.5268
33.5486
33.57
33.5911
33.6118
33.6322
33.6522
33.6718
33.691
33.7099
33.7284
33.7465
33.7642
33.7815
33.7985
33.815
33.8311
33.8468
33.8621
33.877
33.8914
33.9055
33.9191
33.9323
33.945
33.9573
33.9692
33.9807
33.9917
34.0022
34.0124
34.022
34.0313
34.04
34.0484
34.0562
34.0637
34.0706
34.0771
34.0832
34.0888
34.0939
34.0985
34.1027
34.1065
34.1097
34.1125
34.1149
34.1167
34.1181
34.1191
34.1195
46.675
46.6692
46.6575
46.6408
46.6189
46.5924
46.5614
46.5262
46.4867
46.4433
46.3958
46.3444
46.2891
46.23
46.1672
46.1007
46.0306
45.957
45.8799
45.7993
45.7154
45.6281
45.5376
45.444
45.3473
45.2475
45.1448
45.0393
44.9309
44.8198
44.7061
44.5898
44.471
44.3499
44.2264
44.1006
43.9727
43.8427
43.7107
43.5768
43.441
43.3035
43.1643
43.0235
42.8813
42.7376
42.5926
42.4463
42.2989
42.1503
42.0008
41.8504
41.6991
41.5471
41.3943
41.241
41.0872
40.9329
40.7783
40.6234
40.4682
40.313
40.1576
40.0023
39.8471
39.692
39.5371
39.3825
39.2283
39.0745
38.9212
38.7684
38.6162
38.4647
38.314
38.164
38.0149
37.8666
37.7194
37.5731
37.428
37.2839
37.141
36.9993
36.8588
36.7196
36.5818
36.4454
36.3103
36.1768
36.0447
35.9141
35.7851
35.6577
35.5319
35.4078
35.2853
35.1646
35.0455
34.9282
34.8127
34.699
34.5871
34.477
34.3688
34.2624
34.1579
34.0553
33.9545
33.8557
33.7588
33.6638
33.5708
33.4796
33.3904
33.3032
33.2179
33.1345
33.0531
32.9736
32.8961
32.8204
32.7468
32.675
32.6051
32.5372
32.4712
32.4071
32.3448
32.2844
32.2259
32.1693
32.1145
32.0615
32.0103
31.9609
31.9133
31.8675
31.8234
31.7811
31.7405
31.7016
31.6644
31.6288
31.5949
31.5626
31.5319
31.5029
31.4753
31.4494
31.4249
31.402
31.3805
31.3606
31.342
31.3249
31.3092
31.2948
31.2818
31.2702
31.2598
31.2508
31.243
31.2364
31.231
31.2269
31.2239
31.2221
31.2214
31.2218
31.2233
31.2258
31.2294
31.234
31.2395
31.2461
31.2536
31.262
31.2713
31.2815
31.2925
31.3044
31.3171
31.3306
31.3448
31.3598
31.3755
31.3919
31.409
31.4268
31.4452
31.4642
31.4839
31.5041
31.5248
31.5462
31.568
31.5903
31.6132
31.6365
31.6602
31.6844
31.7089
31.7339
31.7593
31.785
31.811
31.8374
31.864
31.891
31.9182
31.9457
31.9734
32.0014
32.0296
32.0579
32.0865
32.1152
32.144
32.173
32.2021
32.2313
32.2606
32.29
32.3195
32.349
32.3785
32.4081
32.4377
32.4673
32.4968
32.5264
32.5559
32.5854
32.6148
32.6442
32.6735
32.7026
32.7317
32.7607
32.7896
32.8183
32.8469
32.8753
32.9036
32.9317
32.9597
32.9874
33.015
33.0423
33.0695
33.0964
33.1231
33.1496
33.1758
33.2018
33.2275
33.2529
33.2781
33.303
33.3276
33.352
33.376
33.3997
33.4231
33.4462
33.469
33.4914
33.5135
33.5353
33.5567
33.5778
33.5985
33.6189
33.6389
33.6585
33.6777
33.6966
33.7151
33.7332
33.7509
33.7683
33.7852
33.8017
33.8178
33.8335
33.8488
33.8637
33.8782
33.8922
33.9058
33.919
33.9317
33.9441
33.956
33.9674
33.9784
33.989
33.9991
34.0088
34.018
34.0268
34.0351
34.043
34.0504
34.0574
34.0639
34.0699
34.0755
34.0806
34.0853
34.0895
34.0932
34.0965
34.0993
34.1016
34.1035
34.1049
34.1058
34.1063
46.6122
46.6059
46.5933
46.5752
46.5518
46.5237
46.4913
46.4548
46.4142
46.3699
46.3217
46.2697
46.214
46.1546
46.0916
46.0249
45.9547
45.881
45.8038
45.7232
45.6392
45.552
45.4615
45.3679
45.2712
45.1715
45.0688
44.9633
44.855
44.744
44.6304
44.5142
44.3955
44.2744
44.151
44.0254
43.8976
43.7677
43.6358
43.502
43.3663
43.2289
43.0899
42.9492
42.8071
42.6636
42.5187
42.3726
42.2253
42.0769
41.9275
41.7772
41.6261
41.4742
41.3217
41.1685
41.0149
40.8608
40.7063
40.5515
40.3966
40.2415
40.0863
39.9312
39.7761
39.6212
39.4665
39.3121
39.1581
39.0044
38.8513
38.6987
38.5467
38.3954
38.2448
38.095
37.9461
37.7981
37.651
37.5049
37.3599
37.216
37.0733
36.9318
36.7915
36.6526
36.5149
36.3787
36.2438
36.1104
35.9785
35.8481
35.7193
35.5921
35.4665
35.3425
35.2202
35.0997
34.9808
34.8637
34.7484
34.6348
34.5231
34.4131
34.3051
34.1989
34.0945
33.9921
33.8915
33.7928
33.6961
33.6012
33.5083
33.4174
33.3283
33.2412
33.1561
33.0729
32.9916
32.9122
32.8348
32.7593
32.6858
32.6142
32.5445
32.4767
32.4108
32.3468
32.2846
32.2244
32.166
32.1095
32.0548
32.0019
31.9508
31.9016
31.8541
31.8084
31.7644
31.7222
31.6817
31.6428
31.6057
31.5702
31.5364
31.5042
31.4736
31.4446
31.4172
31.3913
31.367
31.3441
31.3227
31.3028
31.2843
31.2673
31.2516
31.2373
31.2244
31.2128
31.2025
31.1935
31.1858
31.1792
31.1739
31.1698
31.1669
31.1651
31.1645
31.1649
31.1664
31.169
31.1726
31.1772
31.1828
31.1894
31.1969
31.2054
31.2147
31.2249
31.236
31.2479
31.2606
31.2741
31.2883
31.3033
31.3191
31.3355
31.3526
31.3704
31.3888
31.4078
31.4275
31.4477
31.4685
31.4898
31.5116
31.534
31.5568
31.5801
31.6038
31.628
31.6526
31.6775
31.7029
31.7286
31.7546
31.7809
31.8076
31.8346
31.8618
31.8893
31.917
31.9449
31.9731
32.0014
32.0299
32.0586
32.0874
32.1164
32.1455
32.1747
32.204
32.2334
32.2628
32.2923
32.3218
32.3513
32.3809
32.4105
32.44
32.4696
32.4991
32.5285
32.5579
32.5873
32.6165
32.6457
32.6747
32.7037
32.7325
32.7612
32.7898
32.8182
32.8465
32.8746
32.9025
32.9302
32.9577
32.9851
33.0122
33.0391
33.0658
33.0922
33.1184
33.1444
33.17
33.1955
33.2206
33.2455
33.2701
33.2944
33.3184
33.3421
33.3655
33.3885
33.4113
33.4337
33.4558
33.4775
33.4989
33.52
33.5407
33.561
33.581
33.6006
33.6198
33.6387
33.6572
33.6753
33.693
33.7103
33.7272
33.7437
33.7598
33.7754
33.7907
33.8056
33.82
33.8341
33.8477
33.8608
33.8736
33.8859
33.8977
33.9092
33.9202
33.9307
33.9408
33.9505
33.9597
33.9685
33.9768
33.9847
33.9921
33.999
34.0055
34.0116
34.0172
34.0223
34.0269
34.0311
34.0348
34.0381
34.0409
34.0432
34.0451
34.0465
34.0474
34.0479
46.5853
46.5792
46.5668
46.5489
46.5257
46.4979
46.4656
46.4292
46.3887
46.3443
46.296
46.2439
46.1881
46.1286
46.0654
45.9986
45.9282
45.8543
45.777
45.6963
45.6122
45.5248
45.4343
45.3405
45.2437
45.1439
45.0412
44.9356
44.8272
44.7161
44.6024
44.4861
44.3673
44.2462
44.1227
43.997
43.8691
43.7392
43.6072
43.4733
43.3376
43.2002
43.061
42.9203
42.7782
42.6346
42.4896
42.3434
42.1961
42.0477
41.8983
41.7479
41.5968
41.4449
41.2923
41.1391
40.9854
40.8312
40.6768
40.522
40.367
40.2119
40.0567
39.9015
39.7464
39.5915
39.4368
39.2824
39.1283
38.9747
38.8215
38.6689
38.5169
38.3656
38.2151
38.0653
37.9164
37.7683
37.6213
37.4752
37.3302
37.1864
37.0436
36.9021
36.7619
36.6229
36.4853
36.3491
36.2143
36.0809
35.949
35.8187
35.6899
35.5627
35.4371
35.3132
35.191
35.0704
34.9516
34.8345
34.7192
34.6057
34.494
34.3842
34.2762
34.17
34.0657
33.9633
33.8628
33.7642
33.6675
33.5727
33.4799
33.3889
33.3
33.2129
33.1278
33.0447
32.9635
32.8842
32.8068
32.7314
32.6579
32.5864
32.5167
32.449
32.3832
32.3192
32.2572
32.197
32.1387
32.0822
32.0276
31.9748
31.9238
31.8746
31.8272
31.7815
31.7376
31.6955
31.655
31.6163
31.5792
31.5438
31.5101
31.4779
31.4474
31.4185
31.3911
31.3653
31.341
31.3182
31.2969
31.2771
31.2587
31.2417
31.2261
31.2119
31.199
31.1874
31.1772
31.1683
31.1606
31.1541
31.1489
31.1449
31.142
31.1403
31.1397
31.1402
31.1417
31.1444
31.148
31.1527
31.1584
31.165
31.1726
31.1811
31.1905
31.2007
31.2118
31.2238
31.2365
31.2501
31.2644
31.2794
31.2952
31.3117
31.3289
31.3467
31.3651
31.3842
31.4039
31.4242
31.445
31.4663
31.4882
31.5106
31.5335
31.5568
31.5806
31.6048
31.6294
31.6544
31.6798
31.7055
31.7316
31.7579
31.7846
31.8116
31.8389
31.8664
31.8941
31.9221
31.9503
31.9786
32.0072
32.0359
32.0648
32.0938
32.1229
32.1521
32.1814
32.2108
32.2403
32.2698
32.2993
32.3289
32.3585
32.3881
32.4176
32.4472
32.4767
32.5062
32.5356
32.565
32.5942
32.6234
32.6525
32.6815
32.7103
32.739
32.7676
32.796
32.8243
32.8524
32.8804
32.9081
32.9356
32.963
32.9901
33.017
33.0437
33.0702
33.0964
33.1223
33.148
33.1735
33.1986
33.2235
33.2481
33.2724
33.2964
33.3201
33.3435
33.3666
33.3894
33.4118
33.4339
33.4556
33.477
33.4981
33.5188
33.5392
33.5591
33.5787
33.598
33.6168
33.6353
33.6534
33.6711
33.6884
33.7053
33.7218
33.7379
33.7536
33.7689
33.7838
33.7982
33.8122
33.8259
33.839
33.8518
33.8641
33.876
33.8874
33.8984
33.909
33.9191
33.9287
33.938
33.9467
33.955
33.9629
33.9703
33.9773
33.9838
33.9898
33.9954
34.0005
34.0052
34.0094
34.0131
34.0163
34.0191
34.0215
34.0234
34.0248
34.0257
34.0262
46.5264
46.5201
46.5074
46.4891
46.4654
46.4369
46.4039
46.3669
46.3257
46.2807
46.2319
46.1794
46.1231
46.0633
45.9998
45.9327
45.8621
45.7881
45.7106
45.6297
45.5455
45.4581
45.3674
45.2736
45.1767
45.0769
44.9741
44.8685
44.76
44.6489
44.5352
44.4189
44.3001
44.179
44.0555
43.9298
43.8019
43.6719
43.54
43.4061
43.2705
43.133
42.9939
42.8533
42.7111
42.5676
42.4227
42.2765
42.1293
41.9809
41.8315
41.6813
41.5302
41.3783
41.2258
41.0727
40.919
40.765
40.6106
40.4559
40.301
40.1459
39.9908
39.8358
39.6808
39.5259
39.3713
39.217
39.063
38.9095
38.7564
38.6039
38.4521
38.3009
38.1504
38.0007
37.8519
37.704
37.5571
37.4111
37.2663
37.1225
36.9799
36.8385
36.6984
36.5596
36.4221
36.286
36.1513
36.0181
35.8863
35.7561
35.6275
35.5004
35.375
35.2512
35.1291
35.0087
34.89
34.7731
34.6579
34.5445
34.433
34.3233
34.2154
34.1093
34.0052
33.9029
33.8025
33.7041
33.6075
33.5129
33.4202
33.3294
33.2406
33.1537
33.0687
32.9857
32.9046
32.8254
32.7482
32.673
32.5996
32.5282
32.4587
32.3911
32.3253
32.2615
32.1996
32.1396
32.0814
32.025
31.9705
31.9178
31.8669
31.8179
31.7706
31.725
31.6813
31.6392
31.5989
31.5603
31.5233
31.488
31.4544
31.4223
31.3919
31.3631
31.3358
31.3101
31.2859
31.2632
31.242
31.2223
31.2039
31.187
31.1715
31.1574
31.1446
31.1332
31.123
31.1142
31.1066
31.1002
31.095
31.0911
31.0883
31.0866
31.0861
31.0867
31.0883
31.091
31.0947
31.0995
31.1052
31.1119
31.1195
31.1281
31.1375
31.1478
31.159
31.171
31.1838
31.1974
31.2117
31.2268
31.2427
31.2592
31.2764
31.2943
31.3128
31.3319
31.3516
31.3719
31.3927
31.4141
31.436
31.4585
31.4814
31.5047
31.5285
31.5527
31.5774
31.6024
31.6278
31.6535
31.6796
31.706
31.7328
31.7598
31.787
31.8146
31.8423
31.8703
31.8985
31.9269
31.9554
31.9842
32.013
32.042
32.0712
32.1004
32.1297
32.1591
32.1886
32.2181
32.2476
32.2772
32.3068
32.3364
32.366
32.3955
32.425
32.4545
32.4839
32.5133
32.5426
32.5717
32.6008
32.6298
32.6586
32.6874
32.7159
32.7444
32.7726
32.8007
32.8287
32.8564
32.8839
32.9113
32.9384
32.9653
32.992
33.0184
33.0446
33.0706
33.0963
33.1217
33.1469
33.1717
33.1963
33.2206
33.2446
33.2683
33.2917
33.3148
33.3375
33.3599
33.382
33.4038
33.4252
33.4462
33.4669
33.4872
33.5072
33.5268
33.5461
33.5649
33.5834
33.6015
33.6192
33.6365
33.6534
33.6699
33.6859
33.7016
33.7169
33.7318
33.7462
33.7602
33.7738
33.787
33.7997
33.812
33.8239
33.8353
33.8463
33.8569
33.867
33.8767
33.8859
33.8946
33.9029
33.9108
33.9182
33.9252
33.9317
33.9377
33.9433
33.9484
33.953
33.9572
33.961
33.9642
33.967
33.9693
33.9712
33.9726
33.9736
33.974
46.4928
46.4867
46.4742
46.4562
46.4328
46.4046
46.3718
46.3348
46.2937
46.2487
46.1998
46.1471
46.0907
46.0307
45.967
45.8998
45.829
45.7548
45.6771
45.5961
45.5117
45.424
45.3332
45.2393
45.1422
45.0422
44.9393
44.8335
44.7249
44.6137
44.4998
44.3834
44.2645
44.1432
44.0196
43.8937
43.7657
43.6357
43.5036
43.3696
43.2338
43.0963
42.9571
42.8163
42.6741
42.5304
42.3854
42.2392
42.0918
41.9434
41.7939
41.6436
41.4924
41.3405
41.1879
41.0347
40.881
40.7268
40.5724
40.4176
40.2626
40.1075
39.9524
39.7973
39.6422
39.4873
39.3327
39.1783
39.0243
38.8707
38.7177
38.5651
38.4132
38.262
38.1115
37.9618
37.813
37.6651
37.5181
37.3722
37.2273
37.0836
36.941
36.7996
36.6595
36.5207
36.3832
36.2471
36.1125
35.9793
35.8475
35.7174
35.5887
35.4617
35.3363
35.2126
35.0905
34.9701
34.8515
34.7346
34.6195
34.5062
34.3947
34.285
34.1772
34.0712
33.9671
33.8649
33.7646
33.6662
33.5697
33.4752
33.3825
33.2918
33.203
33.1162
33.0313
32.9484
32.8674
32.7883
32.7112
32.636
32.5627
32.4914
32.422
32.3545
32.2888
32.2251
32.1633
32.1033
32.0452
31.989
31.9346
31.882
31.8312
31.7822
31.735
31.6896
31.6459
31.6039
31.5637
31.5252
31.4883
31.4531
31.4196
31.3877
31.3573
31.3286
31.3014
31.2758
31.2517
31.2291
31.208
31.1883
31.1701
31.1533
31.1379
31.1239
31.1112
31.0998
31.0898
31.081
31.0735
31.0672
31.0621
31.0583
31.0556
31.054
31.0536
31.0542
31.0559
31.0587
31.0625
31.0674
31.0732
31.08
31.0877
31.0963
31.1058
31.1162
31.1275
31.1395
31.1524
31.1661
31.1805
31.1957
31.2116
31.2282
31.2454
31.2634
31.2819
31.3011
31.3209
31.3413
31.3622
31.3837
31.4056
31.4281
31.4511
31.4745
31.4983
31.5226
31.5473
31.5724
31.5979
31.6237
31.6498
31.6763
31.703
31.7301
31.7574
31.785
31.8128
31.8408
31.8691
31.8975
31.9261
31.9549
31.9838
32.0128
32.042
32.0713
32.1006
32.1301
32.1596
32.1891
32.2187
32.2483
32.2779
32.3076
32.3372
32.3668
32.3963
32.4258
32.4553
32.4847
32.514
32.5432
32.5723
32.6013
32.6302
32.6589
32.6875
32.716
32.7443
32.7724
32.8003
32.8281
32.8557
32.883
32.9102
32.9371
32.9638
32.9903
33.0165
33.0425
33.0682
33.0936
33.1188
33.1437
33.1683
33.1926
33.2166
33.2403
33.2637
33.2868
33.3096
33.332
33.3541
33.3759
33.3973
33.4183
33.439
33.4594
33.4794
33.499
33.5182
33.5371
33.5556
33.5737
33.5914
33.6087
33.6256
33.6421
33.6582
33.6739
33.6892
33.704
33.7185
33.7325
33.7461
33.7593
33.772
33.7843
33.7962
33.8077
33.8187
33.8292
33.8393
33.849
33.8582
33.867
33.8753
33.8832
33.8906
33.8975
33.904
33.9101
33.9156
33.9208
33.9254
33.9296
33.9333
33.9366
33.9394
33.9417
33.9436
33.945
33.9459
33.9464
46.4375
46.4313
46.4188
46.4007
46.3772
46.3488
46.3157
46.2784
46.2369
46.1916
46.1423
46.0893
46.0325
45.9722
45.9082
45.8407
45.7696
45.6951
45.6172
45.536
45.4514
45.3636
45.2726
45.1785
45.0813
44.9812
44.8781
44.7722
44.6635
44.5521
44.4382
44.3216
44.2026
44.0812
43.9576
43.8316
43.7036
43.5734
43.4413
43.3072
43.1714
43.0338
42.8945
42.7537
42.6114
42.4677
42.3227
42.1764
42.029
41.8805
41.731
41.5806
41.4294
41.2775
41.1248
40.9716
40.8179
40.6638
40.5093
40.3545
40.1996
40.0445
39.8894
39.7342
39.5792
39.4243
39.2697
39.1154
38.9614
38.8079
38.6548
38.5023
38.3505
38.1993
38.0488
37.8992
37.7504
37.6026
37.4557
37.3098
37.165
37.0213
36.8788
36.7375
36.5974
36.4587
36.3213
36.1853
36.0507
35.9176
35.786
35.6559
35.5274
35.4004
35.2751
35.1515
35.0295
34.9092
34.7907
34.6739
34.5589
34.4457
34.3343
34.2248
34.1171
34.0112
33.9072
33.8052
33.705
33.6067
33.5103
33.4159
33.3234
33.2328
33.1442
33.0575
32.9727
32.8899
32.809
32.7301
32.6531
32.578
32.5049
32.4337
32.3644
32.297
32.2315
32.1679
32.1062
32.0464
31.9884
31.9323
31.878
31.8256
31.7749
31.7261
31.679
31.6337
31.5902
31.5483
31.5082
31.4698
31.4331
31.398
31.3646
31.3328
31.3026
31.274
31.247
31.2215
31.1975
31.175
31.154
31.1345
31.1164
31.0997
31.0844
31.0705
31.0579
31.0466
31.0367
31.028
31.0206
31.0145
31.0095
31.0057
31.0031
31.0017
31.0013
31.0021
31.0039
31.0068
31.0107
31.0156
31.0215
31.0284
31.0362
31.0449
31.0545
31.065
31.0763
31.0885
31.1014
31.1152
31.1297
31.1449
31.1609
31.1776
31.1949
31.2129
31.2316
31.2508
31.2707
31.2911
31.3121
31.3336
31.3556
31.3782
31.4012
31.4247
31.4486
31.4729
31.4977
31.5228
31.5483
31.5742
31.6003
31.6269
31.6537
31.6808
31.7081
31.7357
31.7636
31.7917
31.82
31.8484
31.8771
31.9059
31.9348
31.9639
31.9931
32.0224
32.0518
32.0813
32.1108
32.1404
32.17
32.1996
32.2293
32.2589
32.2886
32.3182
32.3478
32.3773
32.4068
32.4362
32.4655
32.4947
32.5239
32.5529
32.5818
32.6105
32.6391
32.6676
32.6959
32.7241
32.752
32.7798
32.8074
32.8348
32.8619
32.8889
32.9156
32.942
32.9683
32.9942
33.02
33.0454
33.0706
33.0955
33.1201
33.1444
33.1685
33.1922
33.2156
33.2387
33.2614
33.2839
33.306
33.3277
33.3492
33.3702
33.3909
33.4113
33.4313
33.4509
33.4701
33.489
33.5075
33.5256
33.5433
33.5606
33.5775
33.594
33.6101
33.6258
33.6411
33.656
33.6704
33.6844
33.698
33.7112
33.724
33.7363
33.7481
33.7596
33.7706
33.7811
33.7913
33.8009
33.8101
33.8189
33.8272
33.8351
33.8425
33.8495
33.856
33.862
33.8676
33.8727
33.8773
33.8815
33.8853
33.8885
33.8913
33.8937
33.8955
33.8969
33.8979
33.8983
46.3999
46.3938
46.3815
46.3637
46.3404
46.3123
46.2794
46.2422
46.2007
46.1553
46.106
46.0528
45.9959
45.9354
45.8712
45.8035
45.7322
45.6575
45.5793
45.4979
45.4131
45.325
45.2338
45.1395
45.0421
44.9417
44.8384
44.7323
44.6234
44.5119
44.3977
44.281
44.1618
44.0402
43.9164
43.7902
43.662
43.5317
43.3994
43.2652
43.1291
42.9914
42.8519
42.711
42.5685
42.4246
42.2795
42.133
41.9855
41.8369
41.6872
41.5367
41.3854
41.2333
41.0806
40.9272
40.7734
40.6192
40.4646
40.3097
40.1546
39.9994
39.8442
39.689
39.5339
39.3789
39.2242
39.0698
38.9158
38.7621
38.609
38.4565
38.3046
38.1533
38.0028
37.8532
37.7043
37.5564
37.4095
37.2636
37.1188
36.9751
36.8325
36.6912
36.5512
36.4124
36.275
36.139
36.0045
35.8714
35.7397
35.6097
35.4812
35.3543
35.229
35.1054
34.9834
34.8632
34.7447
34.628
34.513
34.3999
34.2886
34.1791
34.0714
33.9656
33.8617
33.7597
33.6596
33.5614
33.4651
33.3707
33.2783
33.1878
33.0993
33.0127
32.928
32.8453
32.7645
32.6857
32.6088
32.5338
32.4608
32.3897
32.3205
32.2532
32.1878
32.1244
32.0628
32.0031
31.9452
31.8892
31.835
31.7827
31.7322
31.6834
31.6365
31.5913
31.5479
31.5062
31.4662
31.4279
31.3913
31.3564
31.3231
31.2914
31.2613
31.2328
31.2059
31.1805
31.1567
31.1343
31.1135
31.0941
31.0761
31.0595
31.0443
31.0305
31.0181
31.007
30.9971
30.9886
30.9813
30.9753
30.9704
30.9668
30.9643
30.9629
30.9627
30.9636
30.9655
30.9685
30.9725
30.9776
30.9836
30.9905
30.9985
31.0073
31.017
31.0276
31.039
31.0513
31.0643
31.0782
31.0928
31.1082
31.1242
31.141
31.1584
31.1765
31.1953
31.2146
31.2346
31.2551
31.2761
31.2978
31.3199
31.3425
31.3656
31.3892
31.4132
31.4376
31.4624
31.4876
31.5132
31.5391
31.5654
31.592
31.6189
31.646
31.6735
31.7012
31.7291
31.7572
31.7856
31.8141
31.8428
31.8717
31.9007
31.9298
31.9591
31.9885
32.0179
32.0474
32.077
32.1067
32.1363
32.166
32.1957
32.2254
32.2551
32.2848
32.3144
32.344
32.3735
32.403
32.4323
32.4616
32.4908
32.5198
32.5488
32.5776
32.6062
32.6347
32.6631
32.6913
32.7192
32.7471
32.7747
32.8021
32.8293
32.8562
32.883
32.9095
32.9357
32.9618
32.9875
33.013
33.0382
33.0631
33.0878
33.1121
33.1362
33.1599
33.1833
33.2064
33.2292
33.2517
33.2738
33.2956
33.317
33.3381
33.3588
33.3792
33.3992
33.4189
33.4381
33.457
33.4755
33.4936
33.5113
33.5286
33.5456
33.5621
33.5782
33.5939
33.6092
33.6241
33.6386
33.6526
33.6662
33.6794
33.6921
33.7045
33.7164
33.7278
33.7388
33.7494
33.7595
33.7692
33.7784
33.7872
33.7955
33.8034
33.8108
33.8177
33.8242
33.8303
33.8359
33.841
33.8456
33.8498
33.8536
33.8568
33.8596
33.862
33.8638
33.8652
33.8662
33.8666
46.3476
46.3416
46.3294
46.3116
46.2883
46.2601
46.2271
46.1898
46.1481
46.1025
46.0528
45.9994
45.9422
45.8813
45.8169
45.7488
45.6773
45.6023
45.5239
45.4421
45.3571
45.2688
45.1774
45.0828
44.9852
44.8846
44.7811
44.6748
44.5658
44.454
44.3396
44.2227
44.1034
43.9816
43.8576
43.7313
43.6029
43.4724
43.34
43.2056
43.0694
42.9315
42.792
42.6508
42.5083
42.3643
42.219
42.0724
41.9247
41.776
41.6263
41.4756
41.3242
41.172
41.0192
40.8658
40.7119
40.5575
40.4028
40.2479
40.0928
39.9375
39.7822
39.627
39.4718
39.3168
39.162
39.0076
38.8535
38.6998
38.5467
38.3941
38.2422
38.0909
37.9404
37.7908
37.6419
37.494
37.3471
37.2012
37.0564
36.9127
36.7702
36.6289
36.4889
36.3502
36.2128
36.0769
35.9423
35.8093
35.6777
35.5477
35.4193
35.2924
35.1672
35.0437
34.9218
34.8017
34.6832
34.5666
34.4517
34.3387
34.2274
34.118
34.0105
33.9048
33.801
33.6991
33.5991
33.501
33.4048
33.3106
33.2183
33.1279
33.0395
32.953
32.8684
32.7858
32.7052
32.6265
32.5497
32.4749
32.402
32.331
32.262
32.1949
32.1296
32.0663
32.0048
31.9453
31.8876
31.8317
31.7777
31.7255
31.6751
31.6265
31.5797
31.5347
31.4914
31.4498
31.41
31.3719
31.3354
31.3006
31.2675
31.2359
31.206
31.1777
31.1509
31.1257
31.102
31.0798
31.059
31.0398
31.0219
31.0055
30.9905
30.9768
30.9645
30.9535
30.9438
30.9354
30.9283
30.9224
30.9176
30.9141
30.9118
30.9105
30.9105
30.9115
30.9135
30.9166
30.9208
30.9259
30.9321
30.9392
30.9472
30.9561
30.966
30.9767
30.9882
31.0006
31.0138
31.0277
31.0424
31.0579
31.0741
31.0909
31.1085
31.1267
31.1455
31.1649
31.185
31.2056
31.2268
31.2485
31.2707
31.2934
31.3166
31.3402
31.3643
31.3888
31.4137
31.439
31.4647
31.4907
31.517
31.5437
31.5707
31.5979
31.6254
31.6532
31.6811
31.7094
31.7378
31.7664
31.7951
31.8241
31.8531
31.8823
31.9117
31.9411
31.9706
32.0002
32.0298
32.0595
32.0892
32.119
32.1487
32.1785
32.2082
32.2379
32.2676
32.2972
32.3267
32.3562
32.3856
32.415
32.4442
32.4733
32.5022
32.5311
32.5598
32.5883
32.6167
32.6449
32.6729
32.7008
32.7284
32.7558
32.7831
32.8101
32.8368
32.8634
32.8896
32.9157
32.9414
32.967
32.9922
33.0171
33.0418
33.0662
33.0902
33.114
33.1374
33.1606
33.1834
33.2059
33.228
33.2498
33.2712
33.2923
33.3131
33.3335
33.3535
33.3731
33.3924
33.4113
33.4298
33.4479
33.4657
33.483
33.4999
33.5165
33.5326
33.5483
33.5636
33.5785
33.593
33.607
33.6206
33.6338
33.6466
33.6589
33.6708
33.6823
33.6933
33.7038
33.714
33.7237
33.7329
33.7417
33.75
33.7579
33.7653
33.7722
33.7788
33.7848
33.7904
33.7955
33.8002
33.8044
33.8081
33.8114
33.8142
33.8165
33.8184
33.8198
33.8207
33.8212
46.3076
46.3017
46.2896
46.2721
46.249
46.221
46.1881
46.1509
46.1092
46.0635
46.0138
45.9602
45.9028
45.8418
45.7771
45.7088
45.637
45.5617
45.4831
45.401
45.3157
45.2272
45.1355
45.0406
44.9428
44.8419
44.7382
44.6316
44.5223
44.4103
44.2956
44.1785
44.0589
43.9369
43.8126
43.6861
43.5574
43.4267
43.294
43.1594
43.023
42.8849
42.7451
42.6038
42.461
42.3168
42.1713
42.0245
41.8766
41.7277
41.5778
41.427
41.2753
41.123
40.97
40.8164
40.6623
40.5078
40.353
40.1979
40.0426
39.8872
39.7318
39.5763
39.421
39.2659
39.111
38.9565
38.8023
38.6485
38.4953
38.3426
38.1906
38.0392
37.8887
37.7389
37.59
37.442
37.295
37.1491
37.0042
36.8605
36.7179
36.5766
36.4366
36.2978
36.1605
36.0245
35.8899
35.7569
35.6253
35.4953
35.3669
35.24
35.1148
34.9913
34.8695
34.7494
34.631
34.5144
34.3996
34.2866
34.1754
34.066
33.9585
33.8529
33.7492
33.6474
33.5474
33.4494
33.3533
33.2592
33.167
33.0767
32.9883
32.902
32.8175
32.735
32.6545
32.5759
32.4993
32.4245
32.3518
32.2809
32.212
32.145
32.0799
32.0167
31.9554
31.8959
31.8383
31.7826
31.7287
31.6767
31.6264
31.578
31.5313
31.4865
31.4433
31.4019
31.3622
31.3242
31.2879
31.2533
31.2203
31.1889
31.1591
31.131
31.1043
31.0792
31.0557
31.0336
31.0131
30.9939
30.9763
30.96
30.9451
30.9316
30.9194
30.9086
30.8991
30.8908
30.8838
30.878
30.8735
30.8701
30.8679
30.8668
30.8669
30.868
30.8702
30.8735
30.8778
30.8831
30.8893
30.8966
30.9047
30.9138
30.9238
30.9346
30.9463
30.9588
30.9721
30.9862
31.001
31.0166
31.0329
31.0499
31.0676
31.0859
31.1048
31.1244
31.1446
31.1653
31.1866
31.2084
31.2307
31.2535
31.2768
31.3006
31.3248
31.3494
31.3744
31.3998
31.4256
31.4517
31.4781
31.5049
31.5319
31.5592
31.5868
31.6147
31.6428
31.6711
31.6996
31.7283
31.7571
31.7861
31.8153
31.8446
31.874
31.9035
31.933
31.9627
31.9924
32.0222
32.052
32.0818
32.1116
32.1414
32.1712
32.201
32.2307
32.2604
32.29
32.3196
32.349
32.3784
32.4077
32.4368
32.4658
32.4947
32.5235
32.5521
32.5805
32.6088
32.6368
32.6647
32.6924
32.7199
32.7472
32.7742
32.801
32.8276
32.8539
32.88
32.9058
32.9313
32.9566
32.9816
33.0063
33.0307
33.0548
33.0786
33.1021
33.1252
33.1481
33.1706
33.1928
33.2146
33.2361
33.2572
33.278
33.2984
33.3184
33.3381
33.3574
33.3763
33.3948
33.413
33.4307
33.4481
33.465
33.4816
33.4977
33.5135
33.5288
33.5437
33.5582
33.5722
33.5859
33.5991
33.6119
33.6242
33.6361
33.6476
33.6586
33.6692
33.6793
33.689
33.6982
33.707
33.7154
33.7232
33.7307
33.7376
33.7442
33.7502
33.7558
33.7609
33.7656
33.7698
33.7735
33.7768
33.7796
33.7819
33.7838
33.7852
33.7862
33.7866
46.2579
46.252
46.24
46.2225
46.1995
46.1715
46.1386
46.1012
46.0595
46.0136
45.9636
45.9098
45.8521
45.7908
45.7258
45.6572
45.5851
45.5095
45.4306
45.3482
45.2626
45.1738
45.0818
44.9867
44.8885
44.7874
44.6834
44.5765
44.4669
44.3547
44.2398
44.1224
44.0025
43.8803
43.7558
43.629
43.5001
43.3692
43.2362
43.1014
42.9648
42.8264
42.6864
42.5449
42.4019
42.2575
42.1117
41.9648
41.8167
41.6676
41.5175
41.3665
41.2147
41.0622
40.909
40.7552
40.601
40.4464
40.2914
40.1361
39.9807
39.8252
39.6696
39.5141
39.3587
39.2034
39.0484
38.8938
38.7395
38.5856
38.4323
38.2795
38.1274
37.976
37.8254
37.6756
37.5266
37.3786
37.2316
37.0856
36.9407
36.7969
36.6544
36.513
36.373
36.2342
36.0969
35.9609
35.8264
35.6933
35.5618
35.4318
35.3034
35.1766
35.0514
34.9279
34.8062
34.6861
34.5678
34.4512
34.3365
34.2236
34.1124
34.0032
33.8958
33.7902
33.6866
33.5849
33.485
33.3871
33.2911
33.1971
33.105
33.0148
32.9266
32.8404
32.756
32.6737
32.5933
32.5148
32.4383
32.3637
32.2911
32.2204
32.1516
32.0848
32.0198
31.9568
31.8956
31.8363
31.7789
31.7233
31.6696
31.6177
31.5676
31.5194
31.4729
31.4281
31.3852
31.3439
31.3044
31.2666
31.2304
31.196
31.1631
31.1319
31.1023
31.0743
31.0479
31.023
30.9996
30.9777
30.9573
30.9383
30.9208
30.9047
30.89
30.8767
30.8647
30.854
30.8446
30.8365
30.8297
30.8241
30.8197
30.8165
30.8144
30.8135
30.8137
30.815
30.8174