/*--------------------------------*- C++ -*----------------------------------*\
| =========                 |                                                 |
| \\      /  F ield         | OpenFOAM: The Open Source CFD Toolbox           |
|  \\    /   O peration     | Version:  2212                                  |
|   \\  /    A nd           | Website:  www.openfoam.com                      |
|    \\/     M anipulation  |                                                 |
\*---------------------------------------------------------------------------*/
FoamFile
{
    version     2.0;
    format      ascii;
    arch        "LSB;label=32;scalar=64";
    class       volScalarField;
    location    "650";
    object      p_rgh_0;
}
// * * * * * * * * * * * * * * * * * * * * * * * * * * * * * * * * * * * * * //

dimensions      [1 -1 -2 0 0 0 0];

internalField   nonuniform List<scalar> 
204800
(
46.7345
46.7323
46.7238
46.7104
46.692
46.6688
46.6407
46.6077
46.5699
46.5277
46.481
46.4302
46.3753
46.3165
46.2538
46.1874
46.1174
46.0438
45.9666
45.886
45.802
45.7147
45.6242
45.5304
45.4336
45.3337
45.2309
45.1252
45.0167
44.9055
44.7917
44.6752
44.5563
44.435
44.3113
44.1854
44.0573
43.9271
43.7949
43.6607
43.5248
43.3871
43.2477
43.1067
42.9642
42.8203
42.6751
42.5286
42.3809
42.2322
42.0825
41.9318
41.7803
41.6281
41.4751
41.3216
41.1675
41.0131
40.8582
40.7031
40.5477
40.3922
40.2367
40.0811
39.9257
39.7704
39.6153
39.4605
39.306
39.152
38.9985
38.8455
38.6931
38.5414
38.3904
38.2403
38.091
37.9426
37.7951
37.6487
37.5033
37.3591
37.216
37.0741
36.9335
36.7942
36.6562
36.5196
36.3844
36.2507
36.1185
35.9878
35.8586
35.7311
35.6052
35.4809
35.3583
35.2374
35.1183
35.0009
34.8853
34.7715
34.6595
34.5493
34.441
34.3345
34.2299
34.1272
34.0265
33.9276
33.8306
33.7356
33.6425
33.5513
33.4621
33.3748
33.2895
33.2061
33.1246
33.0451
32.9676
32.8919
32.8183
32.7465
32.6767
32.6088
32.5428
32.4786
32.4164
32.3561
32.2976
32.241
32.1862
32.1333
32.0822
32.0329
31.9853
31.9396
31.8956
31.8533
31.8128
31.7739
31.7368
31.7013
31.6675
31.6353
31.6047
31.5758
31.5484
31.5225
31.4982
31.4753
31.454
31.4342
31.4157
31.3987
31.3831
31.3689
31.3561
31.3445
31.3343
31.3254
31.3178
31.3113
31.3061
31.3021
31.2993
31.2976
31.2971
31.2977
31.2993
31.302
31.3058
31.3105
31.3162
31.323
31.3306
31.3392
31.3487
31.359
31.3703
31.3823
31.3952
31.4088
31.4233
31.4384
31.4543
31.4709
31.4882
31.5062
31.5247
31.544
31.5638
31.5842
31.6051
31.6266
31.6487
31.6712
31.6942
31.7177
31.7416
31.766
31.7907
31.8159
31.8414
31.8673
31.8935
31.9201
31.9469
31.9741
32.0015
32.0292
32.0571
32.0852
32.1136
32.1421
32.1708
32.1997
32.2287
32.2579
32.2872
32.3165
32.346
32.3756
32.4052
32.4349
32.4646
32.4943
32.5241
32.5538
32.5836
32.6133
32.643
32.6726
32.7022
32.7317
32.7611
32.7905
32.8197
32.8489
32.8779
32.9067
32.9355
32.9641
32.9925
33.0207
33.0488
33.0767
33.1044
33.1319
33.1592
33.1862
33.2131
33.2396
33.266
33.2921
33.3179
33.3435
33.3688
33.3938
33.4185
33.443
33.4671
33.4909
33.5144
33.5376
33.5605
33.583
33.6053
33.6271
33.6486
33.6698
33.6906
33.7111
33.7311
33.7509
33.7702
33.7891
33.8077
33.8259
33.8437
33.8611
33.8781
33.8947
33.9109
33.9266
33.942
33.9569
33.9714
33.9855
33.9992
34.0124
34.0253
34.0376
34.0496
34.0611
34.0721
34.0827
34.0929
34.1026
34.1119
34.1207
34.129
34.137
34.1444
34.1514
34.1579
34.164
34.1696
34.1747
34.1794
34.1836
34.1874
34.1907
34.1935
34.1958
34.1977
34.1991
34.2
34.2005
46.6709
46.6654
46.6538
46.6369
46.6149
46.5883
46.5573
46.522
46.4826
46.4391
46.3917
46.3403
46.2851
46.2261
46.1634
46.097
46.027
45.9534
45.8763
45.7958
45.7119
45.6247
45.5343
45.4407
45.344
45.2443
45.1417
45.0361
44.9278
44.8168
44.7031
44.5869
44.4681
44.347
44.2235
44.0978
43.9699
43.84
43.708
43.5741
43.4384
43.3009
43.1617
43.021
42.8787
42.7351
42.5901
42.4439
42.2965
42.148
41.9985
41.8482
41.6969
41.5449
41.3923
41.239
41.0852
40.931
40.7764
40.6216
40.4665
40.3113
40.156
40.0008
39.8456
39.6905
39.5357
39.3812
39.227
39.0733
38.92
38.7673
38.6152
38.4638
38.3131
38.1632
38.0142
37.866
37.7189
37.5727
37.4276
37.2836
37.1408
36.9992
36.8588
36.7198
36.582
36.4457
36.3108
36.1773
36.0453
35.9149
35.786
35.6587
35.533
35.409
35.2866
35.166
35.0471
34.9299
34.8145
34.7009
34.5891
34.4791
34.371
34.2648
34.1604
34.0579
33.9573
33.8586
33.7618
33.667
33.5741
33.4831
33.394
33.3069
33.2218
33.1385
33.0573
32.9779
32.9005
32.825
32.7515
32.6799
32.6102
32.5424
32.4766
32.4126
32.3505
32.2903
32.2319
32.1754
32.1208
32.068
32.0169
31.9677
31.9203
31.8746
31.8307
31.7886
31.7481
31.7094
31.6723
31.6369
31.6032
31.5711
31.5406
31.5117
31.4843
31.4585
31.4343
31.4115
31.3902
31.3704
31.352
31.3351
31.3195
31.3054
31.2925
31.2811
31.2709
31.262
31.2544
31.248
31.2428
31.2388
31.236
31.2344
31.2338
31.2344
31.2361
31.2388
31.2425
31.2473
31.253
31.2597
31.2674
31.276
31.2854
31.2958
31.307
31.319
31.3319
31.3455
31.3599
31.3751
31.391
31.4076
31.4248
31.4427
31.4613
31.4805
31.5003
31.5207
31.5416
31.5631
31.5851
31.6076
31.6305
31.654
31.6779
31.7022
31.7269
31.752
31.7775
31.8034
31.8296
31.8561
31.8829
31.91
31.9374
31.965
31.9929
32.0209
32.0492
32.0777
32.1064
32.1352
32.1642
32.1933
32.2226
32.2519
32.2813
32.3108
32.3404
32.37
32.3997
32.4294
32.4591
32.4888
32.5185
32.5482
32.5778
32.6074
32.6369
32.6664
32.6958
32.7251
32.7542
32.7833
32.8123
32.8411
32.8698
32.8983
32.9267
32.9549
32.983
33.0108
33.0384
33.0659
33.0931
33.1201
33.1469
33.1734
33.1997
33.2258
33.2516
33.2771
33.3024
33.3273
33.352
33.3764
33.4005
33.4243
33.4478
33.4709
33.4937
33.5162
33.5384
33.5602
33.5817
33.6029
33.6236
33.644
33.6641
33.6838
33.7031
33.722
33.7405
33.7587
33.7764
33.7938
33.8108
33.8273
33.8435
33.8592
33.8746
33.8895
33.904
33.918
33.9317
33.9449
33.9577
33.97
33.9819
33.9934
34.0045
34.015
34.0252
34.0349
34.0441
34.0529
34.0613
34.0692
34.0766
34.0836
34.0901
34.0962
34.1018
34.1069
34.1116
34.1158
34.1195
34.1228
34.1256
34.1279
34.1298
34.1312
34.1321
34.1326
46.6551
46.6493
46.6376
46.6208
46.5989
46.5724
46.5414
46.5062
46.4667
46.4232
46.3757
46.3243
46.269
46.2099
46.1471
46.0806
46.0105
45.9369
45.8597
45.7792
45.6952
45.608
45.5175
45.4239
45.3271
45.2274
45.1247
45.0191
44.9108
44.7997
44.686
44.5697
44.4509
44.3298
44.2063
44.0805
43.9526
43.8226
43.6906
43.5567
43.4209
43.2834
43.1443
43.0035
42.8612
42.7176
42.5726
42.4263
42.2789
42.1305
41.981
41.8306
41.6793
41.5273
41.3746
41.2214
41.0676
40.9134
40.7588
40.6039
40.4488
40.2936
40.1384
39.9831
39.8279
39.6729
39.5181
39.3635
39.2094
39.0556
38.9024
38.7497
38.5976
38.4462
38.2955
38.1456
37.9966
37.8485
37.7013
37.5552
37.4101
37.2661
37.1233
36.9817
36.8414
36.7023
36.5646
36.4283
36.2934
36.16
36.028
35.8976
35.7687
35.6414
35.5158
35.3918
35.2695
35.1488
35.03
34.9128
34.7975
34.6839
34.5721
34.4622
34.3541
34.2479
34.1435
34.0411
33.9405
33.8419
33.7451
33.6503
33.5574
33.4665
33.3775
33.2904
33.2053
33.1221
33.0408
32.9615
32.8842
32.8087
32.7352
32.6637
32.594
32.5263
32.4604
32.3965
32.3345
32.2743
32.216
32.1595
32.1049
32.0521
32.0011
31.952
31.9046
31.859
31.8151
31.773
31.7326
31.6939
31.6568
31.6215
31.5878
31.5557
31.5252
31.4964
31.469
31.4433
31.419
31.3963
31.3751
31.3553
31.337
31.3201
31.3045
31.2904
31.2776
31.2662
31.256
31.2472
31.2396
31.2332
31.2281
31.2241
31.2213
31.2197
31.2192
31.2198
31.2215
31.2242
31.228
31.2328
31.2386
31.2453
31.253
31.2616
31.2711
31.2815
31.2927
31.3048
31.3177
31.3313
31.3458
31.3609
31.3768
31.3934
31.4107
31.4287
31.4473
31.4665
31.4863
31.5067
31.5276
31.5491
31.5711
31.5936
31.6166
31.6401
31.664
31.6884
31.7131
31.7382
31.7637
31.7896
31.8158
31.8423
31.8692
31.8963
31.9237
31.9513
31.9792
32.0073
32.0356
32.0641
32.0928
32.1216
32.1506
32.1798
32.209
32.2383
32.2678
32.2973
32.3269
32.3565
32.3862
32.4159
32.4456
32.4753
32.505
32.5347
32.5643
32.5939
32.6235
32.6529
32.6823
32.7116
32.7408
32.7699
32.7989
32.8277
32.8564
32.8849
32.9133
32.9415
32.9696
32.9974
33.0251
33.0525
33.0798
33.1068
33.1336
33.1601
33.1864
33.2125
33.2383
33.2638
33.289
33.314
33.3387
33.3631
33.3872
33.411
33.4345
33.4576
33.4804
33.5029
33.5251
33.5469
33.5684
33.5896
33.6103
33.6307
33.6508
33.6705
33.6898
33.7087
33.7272
33.7454
33.7632
33.7805
33.7975
33.814
33.8302
33.8459
33.8613
33.8762
33.8907
33.9048
33.9184
33.9316
33.9444
33.9568
33.9687
33.9801
33.9912
34.0018
34.0119
34.0216
34.0309
34.0397
34.048
34.0559
34.0633
34.0703
34.0768
34.0829
34.0885
34.0936
34.0983
34.1025
34.1062
34.1095
34.1123
34.1147
34.1165
34.1179
34.1189
34.1193
46.5924
46.5861
46.5734
46.5552
46.5318
46.5038
46.4713
46.4348
46.3942
46.3499
46.3017
46.2497
46.194
46.1346
46.0715
46.0049
45.9347
45.8609
45.7837
45.7031
45.6191
45.5319
45.4414
45.3478
45.2511
45.1514
45.0487
44.9432
44.8349
44.7239
44.6103
44.4941
44.3754
44.2544
44.131
44.0053
43.8775
43.7476
43.6157
43.4819
43.3463
43.2089
43.0699
42.9292
42.7871
42.6436
42.4987
42.3526
42.2054
42.057
41.9077
41.7574
41.6064
41.4545
41.302
41.1489
40.9953
40.8412
40.6868
40.5321
40.3772
40.2222
40.0671
39.912
39.757
39.6021
39.4475
39.2932
39.1392
38.9856
38.8325
38.68
38.5281
38.3769
38.2264
38.0767
37.9279
37.7799
37.633
37.487
37.3421
37.1983
37.0557
36.9143
36.7741
36.6353
36.4978
36.3616
36.2269
36.0936
35.9619
35.8316
35.7029
35.5758
35.4504
35.3266
35.2044
35.084
34.9653
34.8483
34.7331
34.6197
34.5081
34.3984
34.2904
34.1844
34.0802
33.9779
33.8775
33.779
33.6824
33.5878
33.495
33.4042
33.3154
33.2285
33.1435
33.0604
32.9793
32.9002
32.823
32.7477
32.6743
32.6029
32.5334
32.4657
32.4
32.3362
32.2743
32.2142
32.1561
32.0997
32.0452
31.9925
31.9417
31.8926
31.8453
31.7998
31.7561
31.714
31.6737
31.6351
31.5982
31.5629
31.5293
31.4973
31.4669
31.4381
31.4109
31.3852
31.3611
31.3384
31.3173
31.2976
31.2793
31.2624
31.247
31.2329
31.2202
31.2088
31.1987
31.1899
31.1824
31.1761
31.171
31.1671
31.1643
31.1628
31.1623
31.1629
31.1647
31.1674
31.1713
31.1761
31.1819
31.1886
31.1964
31.205
31.2145
31.2249
31.2362
31.2483
31.2612
31.2748
31.2893
31.3045
31.3204
31.337
31.3543
31.3723
31.3909
31.4101
31.4299
31.4503
31.4713
31.4928
31.5148
31.5373
31.5603
31.5837
31.6076
31.632
31.6567
31.6818
31.7073
31.7332
31.7594
31.7859
31.8127
31.8398
31.8672
31.8948
31.9227
31.9508
31.9791
32.0076
32.0362
32.0651
32.094
32.1232
32.1524
32.1817
32.2111
32.2406
32.2702
32.2998
32.3295
32.3591
32.3888
32.4185
32.4482
32.4779
32.5075
32.537
32.5666
32.596
32.6254
32.6546
32.6838
32.7129
32.7418
32.7706
32.7993
32.8278
32.8562
32.8844
32.9124
32.9402
32.9678
32.9952
33.0224
33.0494
33.0762
33.1027
33.129
33.155
33.1808
33.2063
33.2315
33.2565
33.2811
33.3055
33.3296
33.3533
33.3768
33.3999
33.4227
33.4452
33.4674
33.4892
33.5106
33.5317
33.5525
33.5729
33.5929
33.6126
33.6318
33.6508
33.6693
33.6874
33.7051
33.7225
33.7394
33.756
33.7721
33.7878
33.8032
33.8181
33.8325
33.8466
33.8602
33.8734
33.8862
33.8985
33.9104
33.9219
33.9329
33.9435
33.9536
33.9633
33.9726
33.9814
33.9897
33.9976
34.005
34.012
34.0185
34.0245
34.0301
34.0353
34.0399
34.0441
34.0479
34.0511
34.0539
34.0563
34.0581
34.0595
34.0605
34.061
46.5654
46.5593
46.5468
46.529
46.5058
46.478
46.4457
46.4092
46.3687
46.3243
46.276
46.2239
46.1681
46.1085
46.0453
45.9785
45.9082
45.8343
45.7569
45.6762
45.5921
45.5048
45.4142
45.3204
45.2236
45.1238
45.0211
44.9155
44.8071
44.696
44.5823
44.466
44.3473
44.2261
44.1027
43.9769
43.8491
43.7191
43.5871
43.4533
43.3176
43.1801
43.041
42.9003
42.7582
42.6146
42.4697
42.3235
42.1762
42.0278
41.8785
41.7282
41.577
41.4252
41.2726
41.1195
40.9658
40.8117
40.6573
40.5026
40.3476
40.1926
40.0374
39.8823
39.7273
39.5724
39.4178
39.2634
39.1094
38.9559
38.8028
38.6503
38.4984
38.3471
38.1967
38.047
37.8981
37.7502
37.6032
37.4573
37.3124
37.1686
37.026
36.8846
36.7445
36.6057
36.4682
36.3321
36.1974
36.0641
35.9324
35.8022
35.6735
35.5465
35.421
35.2972
35.1751
35.0547
34.9361
34.8191
34.704
34.5906
34.4791
34.3694
34.2615
34.1555
34.0514
33.9492
33.8488
33.7504
33.6538
33.5592
33.4666
33.3758
33.287
33.2002
33.1152
33.0323
32.9512
32.8721
32.795
32.7197
32.6465
32.5751
32.5056
32.4381
32.3724
32.3087
32.2468
32.1869
32.1287
32.0725
32.018
31.9654
31.9146
31.8656
31.8184
31.773
31.7293
31.6873
31.6471
31.6086
31.5717
31.5365
31.503
31.471
31.4407
31.412
31.3848
31.3592
31.3351
31.3126
31.2915
31.2718
31.2536
31.2368
31.2214
31.2074
31.1948
31.1834
31.1734
31.1647
31.1572
31.1509
31.1459
31.1421
31.1394
31.1379
31.1375
31.1382
31.14
31.1428
31.1467
31.1516
31.1574
31.1642
31.172
31.1807
31.1903
31.2007
31.212
31.2242
31.2371
31.2508
31.2653
31.2806
31.2965
31.3132
31.3306
31.3486
31.3672
31.3865
31.4063
31.4268
31.4478
31.4693
31.4914
31.5139
31.5369
31.5604
31.5844
31.6088
31.6335
31.6587
31.6842
31.7101
31.7364
31.7629
31.7898
31.8169
31.8443
31.872
31.8999
31.928
31.9563
31.9848
32.0135
32.0424
32.0714
32.1005
32.1298
32.1591
32.1886
32.2181
32.2477
32.2773
32.307
32.3367
32.3664
32.3961
32.4258
32.4555
32.4851
32.5147
32.5442
32.5737
32.6031
32.6324
32.6616
32.6906
32.7196
32.7484
32.7771
32.8056
32.834
32.8622
32.8902
32.9181
32.9457
32.9731
33.0004
33.0274
33.0541
33.0807
33.107
33.133
33.1588
33.1843
33.2095
33.2345
33.2592
33.2835
33.3076
33.3314
33.3548
33.378
33.4008
33.4233
33.4454
33.4673
33.4887
33.5098
33.5306
33.551
33.571
33.5907
33.61
33.6289
33.6474
33.6655
33.6833
33.7006
33.7176
33.7341
33.7503
33.766
33.7813
33.7962
33.8107
33.8248
33.8384
33.8516
33.8644
33.8767
33.8886
33.9001
33.9111
33.9217
33.9319
33.9415
33.9508
33.9596
33.9679
33.9758
33.9832
33.9902
33.9967
34.0028
34.0083
34.0135
34.0181
34.0223
34.0261
34.0294
34.0322
34.0345
34.0364
34.0378
34.0387
34.0392
46.5065
46.5002
46.4875
46.4692
46.4454
46.417
46.384
46.3469
46.3057
46.2608
46.2119
46.1594
46.1031
46.0433
45.9798
45.9127
45.8421
45.7681
45.6906
45.6097
45.5255
45.438
45.3473
45.2535
45.1567
45.0568
44.954
44.8484
44.74
44.6289
44.5151
44.3988
44.2801
44.1589
44.0354
43.9097
43.7819
43.6519
43.52
43.3861
43.2504
43.113
42.974
42.8333
42.6912
42.5476
42.4028
42.2567
42.1094
41.9611
41.8117
41.6615
41.5104
41.3586
41.2061
41.0531
40.8995
40.7455
40.5911
40.4365
40.2816
40.1266
39.9716
39.8166
39.6617
39.5069
39.3523
39.1981
39.0442
38.8907
38.7377
38.5853
38.4335
38.2824
38.132
37.9824
37.8337
37.6859
37.5391
37.3932
37.2485
37.1048
36.9623
36.8211
36.6811
36.5424
36.405
36.269
36.1344
36.0013
35.8697
35.7396
35.6111
35.4842
35.3589
35.2352
35.1133
34.993
34.8745
34.7577
34.6427
34.5295
34.4181
34.3085
34.2008
34.0949
33.9909
33.8888
33.7886
33.6903
33.5939
33.4994
33.4069
33.3163
33.2276
33.1409
33.0561
32.9733
32.8924
32.8134
32.7364
32.6613
32.5881
32.5169
32.4476
32.3802
32.3146
32.251
32.1893
32.1294
32.0714
32.0153
31.961
31.9085
31.8578
31.8089
31.7618
31.7165
31.6729
31.6311
31.591
31.5525
31.5158
31.4807
31.4473
31.4155
31.3852
31.3566
31.3296
31.304
31.2801
31.2576
31.2366
31.217
31.1989
31.1822
31.1669
31.153
31.1404
31.1292
31.1192
31.1106
31.1032
31.097
31.0921
31.0883
31.0857
31.0842
31.0839
31.0847
31.0865
31.0894
31.0934
31.0983
31.1042
31.1111
31.1189
31.1277
31.1373
31.1478
31.1592
31.1714
31.1844
31.1982
31.2127
31.228
31.244
31.2607
31.2781
31.2961
31.3148
31.3341
31.354
31.3745
31.3955
31.4171
31.4392
31.4618
31.4848
31.5084
31.5323
31.5567
31.5815
31.6067
31.6323
31.6582
31.6844
31.711
31.7379
31.765
31.7924
31.8201
31.848
31.8762
31.9045
31.933
31.9617
31.9906
32.0196
32.0488
32.078
32.1074
32.1368
32.1664
32.196
32.2256
32.2553
32.285
32.3147
32.3444
32.3741
32.4038
32.4334
32.463
32.4926
32.522
32.5514
32.5807
32.6099
32.6389
32.6679
32.6967
32.7254
32.7539
32.7823
32.8105
32.8385
32.8663
32.894
32.9214
32.9486
32.9756
33.0024
33.0289
33.0552
33.0812
33.107
33.1325
33.1577
33.1827
33.2073
33.2317
33.2558
33.2795
33.303
33.3261
33.3489
33.3714
33.3936
33.4154
33.4368
33.4579
33.4787
33.4991
33.5191
33.5388
33.558
33.5769
33.5954
33.6136
33.6313
33.6487
33.6656
33.6821
33.6983
33.714
33.7293
33.7442
33.7587
33.7727
33.7864
33.7996
33.8123
33.8247
33.8366
33.848
33.859
33.8696
33.8798
33.8894
33.8987
33.9075
33.9158
33.9237
33.9311
33.9381
33.9446
33.9506
33.9562
33.9613
33.966
33.9702
33.9739
33.9772
33.98
33.9823
33.9842
33.9856
33.9866
33.987
46.4729
46.4668
46.4543
46.4363
46.4129
46.3847
46.3519
46.3149
46.2738
46.2288
46.1798
46.1272
46.0708
46.0107
45.9471
45.8798
45.809
45.7348
45.6571
45.576
45.4917
45.404
45.3132
45.2192
45.1222
45.0222
44.9192
44.8134
44.7049
44.5936
44.4798
44.3633
44.2444
44.1232
43.9996
43.8737
43.7457
43.6157
43.4836
43.3496
43.2138
43.0763
42.9371
42.7964
42.6542
42.5105
42.3656
42.2194
42.072
41.9236
41.7742
41.6238
41.4727
41.3208
41.1682
41.0151
40.8614
40.7074
40.5529
40.3982
40.2433
40.0883
39.9332
39.7781
39.6231
39.4683
39.3137
39.1594
39.0055
38.852
38.699
38.5465
38.3947
38.2436
38.0932
37.9436
37.7948
37.647
37.5001
37.3543
37.2095
37.0659
36.9234
36.7822
36.6422
36.5035
36.3661
36.2301
36.0956
35.9625
35.8309
35.7009
35.5724
35.4455
35.3202
35.1966
35.0747
34.9545
34.836
34.7192
34.6043
34.4911
34.3798
34.2702
34.1626
34.0568
33.9528
33.8508
33.7507
33.6524
33.5561
33.4617
33.3692
33.2787
33.1901
33.1035
33.0188
32.936
32.8552
32.7763
32.6994
32.6244
32.5513
32.4801
32.4109
32.3436
32.2781
32.2146
32.153
32.0932
32.0353
31.9792
31.925
31.8726
31.8221
31.7733
31.7263
31.6811
31.6376
31.5958
31.5558
31.5175
31.4808
31.4458
31.4125
31.3808
31.3507
31.3221
31.2952
31.2698
31.2459
31.2235
31.2026
31.1831
31.1651
31.1485
31.1333
31.1195
31.107
31.0958
31.086
31.0774
31.0701
31.064
31.0592
31.0555
31.053
31.0516
31.0514
31.0522
31.0542
31.0572
31.0612
31.0662
31.0722
31.0792
31.0871
31.0959
31.1056
31.1162
31.1276
31.1399
31.153
31.1668
31.1815
31.1968
31.2129
31.2297
31.2471
31.2653
31.284
31.3034
31.3233
31.3439
31.365
31.3866
31.4088
31.4314
31.4545
31.4781
31.5022
31.5266
31.5515
31.5767
31.6023
31.6283
31.6546
31.6812
31.7081
31.7353
31.7628
31.7905
31.8185
31.8467
31.8751
31.9037
31.9324
31.9613
31.9904
32.0196
32.0489
32.0783
32.1078
32.1373
32.167
32.1966
32.2264
32.2561
32.2858
32.3156
32.3453
32.375
32.4047
32.4343
32.4639
32.4934
32.5228
32.5521
32.5813
32.6104
32.6394
32.6683
32.697
32.7255
32.7539
32.7821
32.8102
32.838
32.8657
32.8931
32.9204
32.9474
32.9742
33.0007
33.027
33.0531
33.0789
33.1044
33.1296
33.1546
33.1793
33.2037
33.2278
33.2515
33.275
33.2982
33.321
33.3435
33.3656
33.3874
33.4089
33.43
33.4508
33.4712
33.4912
33.5109
33.5302
33.5491
33.5676
33.5858
33.6035
33.6209
33.6378
33.6544
33.6705
33.6862
33.7016
33.7165
33.7309
33.745
33.7586
33.7718
33.7846
33.797
33.8089
33.8203
33.8314
33.8419
33.8521
33.8618
33.871
33.8798
33.8881
33.896
33.9034
33.9104
33.9169
33.923
33.9286
33.9337
33.9384
33.9426
33.9463
33.9496
33.9524
33.9547
33.9566
33.958
33.9589
33.9594
46.4176
46.4115
46.399
46.3809
46.3573
46.3289
46.2959
46.2585
46.2171
46.1717
46.1224
46.0693
46.0126
45.9522
45.8882
45.8207
45.7497
45.6752
45.5973
45.516
45.4314
45.3436
45.2526
45.1585
45.0613
44.9611
44.8581
44.7522
44.6435
44.5321
44.4182
44.3016
44.1826
44.0613
43.9376
43.8116
43.6836
43.5534
43.4213
43.2873
43.1514
43.0138
42.8746
42.7338
42.5915
42.4478
42.3028
42.1566
42.0092
41.8607
41.7113
41.5609
41.4097
41.2578
41.1052
40.9521
40.7984
40.6443
40.4899
40.3352
40.1803
40.0252
39.8702
39.7151
39.5601
39.4053
39.2508
39.0965
38.9426
38.7891
38.6361
38.4837
38.3319
38.1808
38.0305
37.8809
37.7323
37.5845
37.4377
37.2919
37.1472
37.0036
36.8612
36.72
36.5801
36.4415
36.3042
36.1683
36.0339
35.9009
35.7694
35.6394
35.511
35.3842
35.2591
35.1355
35.0137
34.8936
34.7752
34.6586
34.5437
34.4307
34.3194
34.21
34.1025
33.9968
33.893
33.7911
33.691
33.5929
33.4967
33.4025
33.3101
33.2197
33.1313
33.0447
32.9602
32.8775
32.7968
32.7181
32.6413
32.5664
32.4935
32.4224
32.3533
32.2861
32.2208
32.1575
32.0959
32.0363
31.9785
31.9226
31.8685
31.8163
31.7658
31.7172
31.6703
31.6252
31.5819
31.5402
31.5003
31.4621
31.4256
31.3907
31.3575
31.3259
31.296
31.2675
31.2407
31.2154
31.1916
31.1694
31.1486
31.1292
31.1113
31.0949
31.0798
31.0661
31.0537
31.0427
31.0329
31.0245
31.0172
31.0113
31.0065
31.003
31.0006
30.9993
30.9992
31.0001
31.0021
31.0052
31.0093
31.0144
31.0205
31.0276
31.0356
31.0445
31.0543
31.065
31.0765
31.0888
31.102
31.1159
31.1306
31.1461
31.1622
31.1791
31.1966
31.2148
31.2336
31.253
31.2731
31.2937
31.3148
31.3365
31.3587
31.3815
31.4046
31.4283
31.4524
31.4769
31.5018
31.5271
31.5528
31.5788
31.6051
31.6318
31.6588
31.686
31.7135
31.7413
31.7693
31.7975
31.826
31.8546
31.8834
31.9123
31.9414
31.9706
32
32.0294
32.0589
32.0885
32.1182
32.1479
32.1776
32.2074
32.2372
32.2669
32.2967
32.3264
32.3561
32.3858
32.4154
32.4449
32.4743
32.5037
32.5329
32.562
32.591
32.6199
32.6486
32.6772
32.7056
32.7338
32.7619
32.7897
32.8174
32.8449
32.8721
32.8991
32.9259
32.9525
32.9788
33.0049
33.0307
33.0562
33.0814
33.1064
33.1311
33.1555
33.1796
33.2034
33.2268
33.25
33.2728
33.2953
33.3175
33.3393
33.3608
33.3819
33.4027
33.4231
33.4431
33.4628
33.4821
33.501
33.5195
33.5377
33.5554
33.5728
33.5897
33.6063
33.6224
33.6381
33.6535
33.6684
33.6828
33.6969
33.7105
33.7238
33.7365
33.7489
33.7608
33.7722
33.7833
33.7938
33.804
33.8137
33.8229
33.8317
33.84
33.8479
33.8553
33.8623
33.8688
33.8749
33.8805
33.8856
33.8903
33.8945
33.8982
33.9015
33.9043
33.9066
33.9085
33.9099
33.9108
33.9113
46.38
46.374
46.3617
46.3439
46.3206
46.2924
46.2595
46.2223
46.1809
46.1355
46.0861
46.0329
45.976
45.9155
45.8513
45.7835
45.7123
45.6375
45.5594
45.4779
45.3931
45.305
45.2138
45.1195
45.0221
44.9217
44.8184
44.7123
44.6035
44.4919
44.3777
44.261
44.1418
44.0203
43.8964
43.7703
43.642
43.5117
43.3794
43.2452
43.1092
42.9714
42.832
42.6911
42.5486
42.4048
42.2596
42.1132
41.9657
41.8171
41.6675
41.517
41.3657
41.2137
41.061
40.9077
40.7539
40.5997
40.4452
40.2904
40.1353
39.9802
39.825
39.6699
39.5148
39.3599
39.2053
39.0509
38.8969
38.7434
38.5904
38.4379
38.2861
38.1349
37.9845
37.8349
37.6862
37.5384
37.3916
37.2458
37.101
36.9574
36.815
36.6738
36.5339
36.3952
36.258
36.1221
35.9876
35.8546
35.7232
35.5932
35.4648
35.3381
35.2129
35.0895
34.9677
34.8476
34.7292
34.6127
34.4979
34.3849
34.2737
34.1643
34.0568
33.9512
33.8475
33.7456
33.6457
33.5476
33.4515
33.3573
33.2651
33.1748
33.0864
32.9999
32.9155
32.8329
32.7523
32.6737
32.597
32.5222
32.4493
32.3784
32.3094
32.2423
32.1772
32.1139
32.0525
31.993
31.9353
31.8795
31.8255
31.7734
31.7231
31.6745
31.6278
31.5828
31.5396
31.4981
31.4583
31.4202
31.3838
31.3491
31.316
31.2845
31.2547
31.2264
31.1997
31.1745
31.1508
31.1287
31.108
31.0888
31.0711
31.0547
31.0397
31.0261
31.0139
31.003
30.9934
30.985
30.9779
30.9721
30.9674
30.964
30.9617
30.9606
30.9605
30.9616
30.9638
30.967
30.9712
30.9764
30.9826
30.9898
30.9979
31.0069
31.0168
31.0276
31.0392
31.0517
31.0649
31.079
31.0938
31.1093
31.1255
31.1425
31.1601
31.1784
31.1973
31.2168
31.237
31.2577
31.2789
31.3007
31.323
31.3458
31.3691
31.3928
31.417
31.4415
31.4665
31.4919
31.5177
31.5438
31.5702
31.5969
31.624
31.6513
31.6789
31.7067
31.7348
31.7631
31.7916
31.8203
31.8491
31.8781
31.9073
31.9366
31.9659
31.9954
32.025
32.0547
32.0844
32.1142
32.144
32.1738
32.2036
32.2334
32.2632
32.293
32.3228
32.3525
32.3821
32.4116
32.4411
32.4705
32.4998
32.5289
32.558
32.5869
32.6156
32.6443
32.6727
32.701
32.7291
32.757
32.7847
32.8122
32.8394
32.8665
32.8933
32.9199
32.9463
32.9723
32.9982
33.0237
33.049
33.074
33.0987
33.1231
33.1473
33.1711
33.1946
33.2177
33.2406
33.2631
33.2853
33.3071
33.3286
33.3498
33.3706
33.391
33.411
33.4307
33.45
33.469
33.4875
33.5057
33.5234
33.5408
33.5578
33.5743
33.5905
33.6062
33.6216
33.6365
33.651
33.665
33.6787
33.6919
33.7047
33.717
33.729
33.7404
33.7515
33.7621
33.7722
33.7819
33.7911
33.7999
33.8083
33.8162
33.8236
33.8306
33.8371
33.8431
33.8487
33.8539
33.8585
33.8627
33.8665
33.8698
33.8726
33.8749
33.8768
33.8782
33.8791
33.8796
46.3278
46.3218
46.3096
46.2918
46.2685
46.2403
46.2073
46.1699
46.1283
46.0826
46.033
45.9795
45.9223
45.8615
45.797
45.7289
45.6574
45.5824
45.504
45.4222
45.3371
45.2489
45.1574
45.0628
44.9652
44.8647
44.7612
44.6549
44.5458
44.4341
44.3197
44.2028
44.0834
43.9617
43.8376
43.7114
43.583
43.4525
43.32
43.1857
43.0495
42.9116
42.7721
42.631
42.4884
42.3444
42.1991
42.0526
41.905
41.7563
41.6066
41.456
41.3046
41.1524
40.9996
40.8463
40.6924
40.5381
40.3835
40.2286
40.0735
39.9183
39.7631
39.6079
39.4527
39.2978
39.1431
38.9887
38.8347
38.6811
38.5281
38.3756
38.2237
38.0725
37.9221
37.7725
37.6238
37.476
37.3292
37.1834
37.0387
36.8951
36.7527
36.6115
36.4716
36.333
36.1958
36.0599
35.9255
35.7926
35.6612
35.5313
35.403
35.2762
35.1512
35.0278
34.906
34.786
34.6678
34.5513
34.4366
34.3237
34.2126
34.1033
33.9959
33.8904
33.7868
33.685
33.5852
33.4872
33.3912
33.2972
33.205
33.1148
33.0266
32.9403
32.8559
32.7735
32.693
32.6145
32.5379
32.4633
32.3906
32.3198
32.2509
32.184
32.119
32.0558
31.9946
31.9352
31.8777
31.822
31.7682
31.7162
31.666
31.6176
31.571
31.5262
31.4831
31.4418
31.4021
31.3642
31.3279
31.2933
31.2604
31.2291
31.1994
31.1712
31.1447
31.1196
31.0961
31.0741
31.0536
31.0345
31.0169
31.0007
30.9859
30.9724
30.9603
30.9495
30.94
30.9318
30.9249
30.9192
30.9147
30.9114
30.9092
30.9082
30.9083
30.9095
30.9118
30.9151
30.9194
30.9248
30.9311
30.9384
30.9466
30.9557
30.9658
30.9767
30.9884
31.001
31.0143
31.0285
31.0434
31.059
31.0754
31.0924
31.1102
31.1285
31.1476
31.1672
31.1874
31.2082
31.2295
31.2514
31.2738
31.2967
31.32
31.3439
31.3681
31.3928
31.4178
31.4433
31.4691
31.4953
31.5218
31.5486
31.5757
31.6031
31.6308
31.6587
31.6868
31.7152
31.7438
31.7725
31.8014
31.8305
31.8597
31.889
31.9185
31.948
31.9777
32.0074
32.0372
32.067
32.0968
32.1267
32.1566
32.1864
32.2163
32.2461
32.2759
32.3056
32.3353
32.3649
32.3944
32.4239
32.4532
32.4824
32.5114
32.5404
32.5692
32.5978
32.6263
32.6546
32.6827
32.7107
32.7384
32.7659
32.7932
32.8203
32.8472
32.8738
32.9001
32.9262
32.9521
32.9777
33.003
33.028
33.0527
33.0772
33.1013
33.1251
33.1487
33.1719
33.1947
33.2173
33.2395
33.2613
33.2828
33.304
33.3248
33.3452
33.3653
33.385
33.4043
33.4233
33.4418
33.46
33.4778
33.4951
33.5121
33.5287
33.5448
33.5606
33.5759
33.5909
33.6054
33.6194
33.6331
33.6463
33.6591
33.6715
33.6834
33.6949
33.7059
33.7165
33.7267
33.7364
33.7456
33.7544
33.7628
33.7706
33.7781
33.7851
33.7916
33.7976
33.8032
33.8084
33.813
33.8172
33.821
33.8243
33.8271
33.8294
33.8313
33.8327
33.8336
33.8341
46.2879
46.2819
46.2699
46.2523
46.2292
46.2012
46.1683
46.1311
46.0894
46.0437
45.994
45.9404
45.883
45.8219
45.7572
45.6889
45.6171
45.5418
45.4632
45.3811
45.2958
45.2072
45.1155
45.0207
44.9228
44.822
44.7182
44.6117
44.5023
44.3903
44.2757
44.1586
44.0389
43.917
43.7927
43.6661
43.5375
43.4068
43.2741
43.1395
43.0031
42.865
42.7252
42.5839
42.4411
42.2969
42.1515
42.0047
41.8569
41.708
41.5581
41.4073
41.2557
41.1034
40.9504
40.7969
40.6428
40.4884
40.3336
40.1786
40.0233
39.868
39.7126
39.5573
39.402
39.2469
39.0921
38.9376
38.7835
38.6298
38.4766
38.324
38.1721
38.0208
37.8703
37.7207
37.5719
37.424
37.2771
37.1313
36.9865
36.8429
36.7004
36.5592
36.4193
36.2807
36.1434
36.0076
35.8731
35.7402
35.6088
35.4789
35.3506
35.2239
35.0988
34.9754
34.8537
34.7338
34.6155
34.4991
34.3844
34.2716
34.1605
34.0513
33.944
33.8385
33.735
33.6333
33.5335
33.4357
33.3398
33.2458
33.1537
33.0636
32.9755
32.8893
32.805
32.7227
32.6423
32.5639
32.4875
32.4129
32.3403
32.2697
32.201
32.1341
32.0692
32.0062
31.9451
31.8858
31.8285
31.7729
31.7193
31.6674
31.6174
31.5691
31.5227
31.478
31.435
31.3938
31.3543
31.3166
31.2805
31.246
31.2132
31.182
31.1525
31.1245
31.0981
31.0732
31.0499
31.028
31.0076
30.9887
30.9712
30.9552
30.9405
30.9272
30.9152
30.9046
30.8953
30.8872
30.8804
30.8749
30.8705
30.8673
30.8653
30.8645
30.8647
30.866
30.8685
30.8719
30.8764
30.8819
30.8884
30.8958
30.9042
30.9134
30.9236
30.9346
30.9465
30.9592
30.9727
30.9869
31.002
31.0177
31.0342
31.0514
31.0693
31.0878
31.1069
31.1266
31.147
31.1679
31.1893
31.2113
31.2338
31.2568
31.2803
31.3042
31.3286
31.3533
31.3785
31.4041
31.43
31.4563
31.4829
31.5098
31.537
31.5645
31.5922
31.6202
31.6485
31.6769
31.7055
31.7344
31.7634
31.7925
31.8218
31.8512
31.8808
31.9104
31.9401
31.9699
31.9997
32.0296
32.0596
32.0895
32.1194
32.1494
32.1793
32.2092
32.239
32.2688
32.2986
32.3282
32.3578
32.3873
32.4167
32.4459
32.475
32.504
32.5329
32.5616
32.5901
32.6185
32.6466
32.6746
32.7024
32.73
32.7573
32.7844
32.8113
32.838
32.8644
32.8905
32.9164
32.9421
32.9674
32.9925
33.0172
33.0417
33.0659
33.0897
33.1133
33.1365
33.1594
33.182
33.2042
33.2261
33.2476
33.2688
33.2896
33.3101
33.3302
33.3499
33.3693
33.3882
33.4068
33.425
33.4428
33.4602
33.4772
33.4938
33.51
33.5257
33.5411
33.556
33.5706
33.5846
33.5983
33.6116
33.6244
33.6367
33.6487
33.6602
33.6712
33.6818
33.692
33.7017
33.7109
33.7197
33.7281
33.736
33.7434
33.7504
33.757
33.763
33.7686
33.7738
33.7784
33.7827
33.7864
33.7897
33.7925
33.7948
33.7967
33.7981
33.799
33.7995
46.2381
46.2322
46.2202
46.2027
46.1797
46.1517
46.1188
46.0815
46.0397
45.9938
45.9438
45.89
45.8323
45.771
45.7059
45.6373
45.5652
45.4897
45.4107
45.3283
45.2427
45.1539
45.0619
44.9667
44.8686
44.7675
44.6635
44.5566
44.447
44.3348
44.2199
44.1025
43.9826
43.8604
43.7358
43.6091
43.4802
43.3492
43.2163
43.0815
42.9449
42.8065
42.6666
42.525
42.382
42.2376
42.092
41.945
41.797
41.6479
41.4978
41.3469
41.1951
41.0426
40.8895
40.7358
40.5816
40.427
40.272
40.1168
39.9615
39.806
39.6505
39.495
39.3397
39.1845
39.0295
38.8749
38.7207
38.5669
38.4137
38.261
38.109
37.9577
37.8071
37.6574
37.5085
37.3606
37.2137
37.0678
36.923
36.7793
36.6369
36.4956
36.3557
36.2171
36.0798
35.944
35.8096
35.6766
35.5452
35.4154
35.2871
35.1604
35.0354
34.9121
34.7904
34.6705
34.5523
34.4359
34.3213
34.2086
34.0976
33.9885
33.8812
33.7759
33.6724
33.5708
33.4711
33.3734
33.2776
33.1837
33.0918
33.0018
32.9138
32.8277
32.7435
32.6614
32.5811
32.5029
32.4265
32.3521
32.2797
32.2092
32.1406
32.0739
32.0092
31.9463
31.8853
31.8262
31.769
31.7136
31.6601
31.6084
31.5585
31.5105
31.4642
31.4197
31.3769
31.3358
31.2965
31.2589
31.223
31.1887
31.1561
31.1251
31.0957
31.0679
31.0416
31.0169
30.9937
30.9721
30.9519
30.9331
30.9158
30.8999
30.8854
30.8723
30.8605
30.85
30.8408
30.8329
30.8263
30.8209
30.8167
30.8137
30.8119
30.8111
30.8115
30.813