/*--------------------------------*- C++ -*----------------------------------*\
| =========                 |                                                 |
| \\      /  F ield         | OpenFOAM: The Open Source CFD Toolbox           |
|  \\    /   O peration     | Version:  2212                                  |
|   \\  /    A nd           | Website:  www.openfoam.com                      |
|    \\/     M anipulation  |                                                 |
\*---------------------------------------------------------------------------*/
FoamFile
{
    version     2.0;
    format      ascii;
    arch        "LSB;label=32;scalar=64";
    class       volScalarField;
    location    "430";
    object      p_rgh_0;
}
// * * * * * * * * * * * * * * * * * * * * * * * * * * * * * * * * * * * * * //

dimensions      [1 -1 -2 0 0 0 0];

internalField   nonuniform List<scalar> 
204800
(
31.6526
31.6387
31.6124
31.5741
31.5237
31.4614
31.3878
31.3033
31.2088
31.1047
30.9919
30.8708
30.7422
30.6065
30.4644
30.3163
30.1627
30.0041
29.8407
29.6731
29.5015
29.3263
29.1479
28.9664
28.7822
28.5956
28.4069
28.2163
28.0241
27.8305
27.6358
27.4401
27.2438
27.047
26.8499
26.6529
26.4559
26.2593
26.0633
25.868
25.6735
25.4802
25.288
25.0973
24.9081
24.7205
24.5348
24.3511
24.1695
23.9901
23.813
23.6384
23.4664
23.297
23.1304
22.9667
22.8059
22.6482
22.4936
22.3422
22.194
22.0492
21.9078
21.7699
21.6354
21.5045
21.3772
21.2535
21.1335
21.0173
20.9047
20.7959
20.6909
20.5897
20.4923
20.3987
20.309
20.2231
20.141
20.0627
19.9882
19.9176
19.8507
19.7876
19.7283
19.6727
19.6209
19.5727
19.5282
19.4873
19.4501
19.4164
19.3862
19.3595
19.3363
19.3165
19.3001
19.287
19.2771
19.2705
19.2672
19.2669
19.2697
19.2756
19.2844
19.2962
19.3109
19.3284
19.3487
19.3717
19.3973
19.4256
19.4564
19.4898
19.5255
19.5637
19.6041
19.6469
19.6918
19.739
19.7882
19.8394
19.8927
19.9479
20.005
20.0639
20.1245
20.1869
20.251
20.3166
20.3838
20.4525
20.5227
20.5942
20.6671
20.7413
20.8168
20.8934
20.9713
21.0502
21.1301
21.2111
21.293
21.3759
21.4596
21.5442
21.6296
21.7157
21.8025
21.89
21.9781
22.0668
22.156
22.2458
22.336
22.4266
22.5177
22.6092
22.7009
22.793
22.8853
22.9779
23.0707
23.1637
23.2568
23.35
23.4433
23.5367
23.6301
23.7235
23.8169
23.9103
24.0036
24.0968
24.1899
24.2829
24.3757
24.4683
24.5607
24.653
24.7449
24.8367
24.9281
25.0193
25.1101
25.2006
25.2908
25.3806
25.47
25.5591
25.6477
25.736
25.8237
25.9111
25.998
26.0844
26.1704
26.2558
26.3408
26.4252
26.5091
26.5925
26.6753
26.7576
26.8393
26.9205
27.0011
27.081
27.1604
27.2392
27.3174
27.395
27.4719
27.5482
27.6239
27.699
27.7734
27.8471
27.9202
27.9926
28.0644
28.1355
28.2059
28.2757
28.3448
28.4131
28.4808
28.5478
28.6141
28.6798
28.7447
28.8089
28.8724
28.9352
28.9973
29.0586
29.1193
29.1793
29.2385
29.297
29.3548
29.4119
29.4682
29.5238
29.5787
29.6329
29.6864
29.7391
29.7911
29.8424
29.8929
29.9427
29.9918
30.0401
30.0877
30.1346
30.1808
30.2262
30.2709
30.3149
30.3581
30.4006
30.4424
30.4834
30.5237
30.5633
30.6021
30.6402
30.6776
30.7143
30.7502
30.7854
30.8199
30.8536
30.8866
30.9189
30.9505
30.9813
31.0114
31.0408
31.0695
31.0974
31.1246
31.1511
31.1769
31.2019
31.2263
31.2499
31.2727
31.2949
31.3163
31.3371
31.3571
31.3764
31.3949
31.4128
31.4299
31.4463
31.462
31.477
31.4913
31.5048
31.5177
31.5298
31.5412
31.5519
31.5618
31.5711
31.5797
31.5875
31.5946
31.601
31.6067
31.6117
31.616
31.6196
31.6224
31.6245
31.626
31.6267
31.6284
31.6138
31.5852
31.5434
31.4889
31.4222
31.3443
31.256
31.1579
31.051
30.9357
30.8128
30.6827
30.5461
30.4032
30.2547
30.1008
29.942
29.7786
29.6111
29.4397
29.2647
29.0864
28.9052
28.7213
28.5351
28.3467
28.1564
27.9645
27.7712
27.5769
27.3816
27.1856
26.9892
26.7925
26.5958
26.3992
26.203
26.0073
25.8124
25.6183
25.4253
25.2336
25.0432
24.8544
24.6672
24.4819
24.2985
24.1172
23.9382
23.7615
23.5872
23.4155
23.2465
23.0803
22.9169
22.7564
22.599
22.4447
22.2936
22.1458
22.0013
21.8602
21.7225
21.5883
21.4577
21.3307
21.2073
21.0875
20.9715
20.8592
20.7507
20.6459
20.5449
20.4477
20.3543
20.2648
20.1791
20.0972
20.0191
19.9448
19.8743
19.8076
19.7447
19.6855
19.6301
19.5784
19.5303
19.4859
19.4452
19.408
19.3744
19.3444
19.3178
19.2946
19.2749
19.2585
19.2455
19.2357
19.2292
19.2259
19.2256
19.2285
19.2344
19.2433
19.2551
19.2698
19.2873
19.3076
19.3306
19.3562
19.3845
19.4153
19.4486
19.4843
19.5224
19.5628
19.6055
19.6504
19.6975
19.7467
19.7979
19.8511
19.9062
19.9632
20.022
20.0826
20.1449
20.2088
20.2744
20.3415
20.4101
20.4802
20.5516
20.6244
20.6985
20.7739
20.8504
20.9281
21.0069
21.0867
21.1676
21.2494
21.3321
21.4157
21.5002
21.5854
21.6714
21.758
21.8454
21.9333
22.0219
22.111
22.2006
22.2907
22.3812
22.4721
22.5634
22.655
22.7469
22.8391
22.9315
23.0241
23.117
23.2099
23.303
23.3961
23.4893
23.5826
23.6759
23.7691
23.8623
23.9555
24.0485
24.1414
24.2342
24.3269
24.4194
24.5116
24.6037
24.6955
24.787
24.8783
24.9693
25.06
25.1503
25.2404
25.33
25.4193
25.5082
25.5967
25.6847
25.7724
25.8596
25.9463
26.0326
26.1184
26.2037
26.2885
26.3728
26.4565
26.5397
26.6224
26.7046
26.7861
26.8671
26.9476
27.0274
27.1066
27.1853
27.2633
27.3407
27.4176
27.4937
27.5693
27.6442
27.7184
27.792
27.865
27.9373
28.0089
28.0799
28.1502
28.2198
28.2888
28.357
28.4246
28.4915
28.5577
28.6231
28.6879
28.752
28.8154
28.8781
28.9401
29.0013
29.0619
29.1217
29.1808
29.2392
29.2969
29.3539
29.4101
29.4656
29.5204
29.5745
29.6279
29.6805
29.7324
29.7836
29.834
29.8837
29.9327
29.9809
30.0285
30.0753
30.1213
30.1667
30.2113
30.2552
30.2983
30.3407
30.3824
30.4234
30.4636
30.5031
30.5419
30.5799
30.6172
30.6538
30.6897
30.7248
30.7592
30.7929
30.8259
30.8581
30.8896
30.9204
30.9504
30.9797
31.0083
31.0362
31.0634
31.0898
31.1156
31.1405
31.1648
31.1884
31.2112
31.2333
31.2547
31.2754
31.2954
31.3146
31.3332
31.351
31.3681
31.3845
31.4001
31.4151
31.4293
31.4428
31.4557
31.4678
31.4791
31.4898
31.4998
31.509
31.5175
31.5254
31.5325
31.5389
31.5446
31.5495
31.5538
31.5574
31.5602
31.5623
31.5638
31.5645
31.6077
31.5936
31.5655
31.524
31.4697
31.4033
31.3257
31.2375
31.1396
31.0328
30.9176
30.7947
30.6646
30.5278
30.3849
30.2363
30.0823
29.9235
29.76
29.5924
29.4209
29.2459
29.0676
28.8863
28.7024
28.5161
28.3277
28.1374
27.9455
27.7523
27.5579
27.3627
27.1667
26.9703
26.7737
26.577
26.3805
26.1843
25.9887
25.7938
25.5998
25.4069
25.2152
25.0248
24.8361
24.649
24.4637
24.2804
24.0992
23.9202
23.7436
23.5694
23.3978
23.2289
23.0627
22.8994
22.739
22.5817
22.4275
22.2764
22.1287
21.9843
21.8432
21.7056
21.5715
21.441
21.3141
21.1907
21.0711
20.9552
20.8429
20.7345
20.6298
20.5289
20.4318
20.3385
20.2491
20.1634
20.0816
20.0036
19.9294
19.859
19.7924
19.7296
19.6705
19.6152
19.5635
19.5156
19.4713
19.4306
19.3935
19.36
19.33
19.3035
19.2805
19.2608
19.2446
19.2316
19.2219
19.2155
19.2122
19.2121
19.215
19.221
19.2299
19.2418
19.2566
19.2742
19.2945
19.3176
19.3433
19.3716
19.4025
19.4359
19.4717
19.5098
19.5503
19.5931
19.6381
19.6852
19.7344
19.7857
19.8389
19.8941
19.9512
20.0101
20.0707
20.133
20.1971
20.2627
20.3298
20.3985
20.4686
20.5401
20.6129
20.6871
20.7625
20.839
20.9168
20.9956
21.0755
21.1564
21.2382
21.321
21.4046
21.4891
21.5743
21.6603
21.7471
21.8344
21.9224
22.011
22.1001
22.1897
22.2798
22.3704
22.4613
22.5526
22.6443
22.7362
22.8284
22.9209
23.0135
23.1063
23.1993
23.2924
23.3855
23.4788
23.572
23.6653
23.7586
23.8518
23.9449
24.038
24.1309
24.2237
24.3164
24.4089
24.5011
24.5932
24.685
24.7766
24.8679
24.9589
25.0495
25.1399
25.2299
25.3196
25.4088
25.4977
25.5862
25.6743
25.7619
25.8491
25.9358
26.0221
26.1079
26.1932
26.278
26.3623
26.446
26.5292
26.6119
26.694
26.7756
26.8566
26.937
27.0169
27.0961
27.1747
27.2528
27.3302
27.407
27.4831
27.5587
27.6336
27.7078
27.7814
27.8544
27.9267
27.9983
28.0693
28.1395
28.2091
28.2781
28.3463
28.4139
28.4807
28.5469
28.6124
28.6772
28.7413
28.8046
28.8673
28.9293
28.9905
29.0511
29.1109
29.17
29.2284
29.2861
29.343
29.3992
29.4548
29.5095
29.5636
29.6169
29.6696
29.7214
29.7726
29.823
29.8727
29.9217
29.97
30.0175
30.0643
30.1103
30.1556
30.2002
30.2441
30.2873
30.3297
30.3713
30.4123
30.4525
30.492
30.5308
30.5688
30.6061
30.6427
30.6785
30.7137
30.7481
30.7817
30.8147
30.8469
30.8784
30.9092
30.9392
30.9685
30.9971
31.025
31.0522
31.0786
31.1043
31.1293
31.1536
31.1771
31.1999
31.2221
31.2435
31.2641
31.2841
31.3033
31.3219
31.3397
31.3568
31.3731
31.3888
31.4038
31.418
31.4315
31.4443
31.4564
31.4678
31.4785
31.4884
31.4977
31.5062
31.514
31.5211
31.5275
31.5332
31.5382
31.5425
31.546
31.5489
31.551
31.5524
31.5531
31.5668
31.5523
31.5232
31.4803
31.4244
31.3561
31.2765
31.1865
31.0869
30.9784
30.8618
30.7377
30.6066
30.469
30.3254
30.1763
30.0219
29.8628
29.6992
29.5314
29.3599
29.1849
29.0066
28.8255
28.6417
28.4556
28.2673
28.0772
27.8856
27.6926
27.4984
27.3034
27.1077
26.9116
26.7152
26.5188
26.3226
26.1267
25.9314
25.7368
25.5431
25.3505
25.1591
24.9691
24.7806
24.5938
24.4089
24.2259
24.045
23.8664
23.69
23.5162
23.3449
23.1762
23.0103
22.8473
22.6873
22.5302
22.3763
22.2256
22.0781
21.934
21.7933
21.656
21.5221
21.3919
21.2652
21.1422
21.0228
20.9071
20.7952
20.687
20.5825
20.4819
20.385
20.292
20.2028
20.1174
20.0358
19.958
19.884
19.8138
19.7474
19.6848
19.6259
19.5708
19.5193
19.4715
19.4274
19.3869
19.35
19.3167
19.2869
19.2605
19.2376
19.2181
19.202
19.1892
19.1796
19.1733
19.1702
19.1702
19.1732
19.1793
19.1884
19.2004
19.2152
19.2329
19.2533
19.2765
19.3023
19.3307
19.3616
19.3951
19.4309
19.4692
19.5097
19.5525
19.5976
19.6447
19.694
19.7453
19.7986
19.8538
19.9109
19.9698
20.0304
20.0928
20.1568
20.2224
20.2896
20.3582
20.4283
20.4998
20.5727
20.6468
20.7221
20.7987
20.8764
20.9552
21.0351
21.1159
21.1977
21.2805
21.3641
21.4485
21.5337
21.6196
21.7063
21.7936
21.8816
21.9701
22.0591
22.1487
22.2387
22.3292
22.4201
22.5113
22.6029
22.6948
22.7869
22.8793
22.9718
23.0646
23.1575
23.2505
23.3436
23.4367
23.5299
23.6231
23.7162
23.8094
23.9024
23.9954
24.0882
24.181
24.2735
24.3659
24.4581
24.55
24.6418
24.7332
24.8244
24.9153
25.0059
25.0961
25.1861
25.2756
25.3648
25.4536
25.542
25.6299
25.7175
25.8046
25.8912
25.9774
26.063
26.1482
26.2329
26.3171
26.4008
26.4839
26.5665
26.6485
26.7299
26.8108
26.8912
26.9709
27.05
27.1286
27.2065
27.2838
27.3605
27.4366
27.512
27.5868
27.661
27.7345
27.8073
27.8795
27.9511
28.0219
28.0921
28.1616
28.2305
28.2986
28.3661
28.4329
28.4989
28.5643
28.629
28.693
28.7563
28.8189
28.8808
28.9419
29.0024
29.0621
29.1212
29.1795
29.2371
29.2939
29.3501
29.4055
29.4602
29.5142
29.5675
29.62
29.6718
29.7229
29.7733
29.8229
29.8718
29.92
29.9674
30.0141
30.0601
30.1054
30.1499
30.1937
30.2368
30.2792
30.3208
30.3617
30.4018
30.4413
30.48
30.5179
30.5552
30.5917
30.6275
30.6626
30.6969
30.7306
30.7634
30.7956
30.8271
30.8578
30.8878
30.9171
30.9456
30.9735
31.0006
31.027
31.0526
31.0776
31.1018
31.1253
31.1481
31.1702
31.1916
31.2122
31.2322
31.2514
31.2699
31.2877
31.3047
31.3211
31.3367
31.3516
31.3659
31.3794
31.3921
31.4042
31.4156
31.4262
31.4362
31.4454
31.4539
31.4617
31.4688
31.4752
31.4809
31.4859
31.4901
31.4937
31.4965
31.4986
31.5001
31.5008
31.5296
31.5153
31.4866
31.4442
31.3888
31.3212
31.2422
31.1527
31.0535
30.9454
30.8289
30.7049
30.5739
30.4363
30.2926
30.1433
29.9888
29.8296
29.6658
29.4979
29.3262
29.1511
28.9728
28.7915
28.6077
28.4215
28.2332
28.0431
27.8514
27.6584
27.4643
27.2693
27.0736
26.8775
26.6812
26.4849
26.2887
26.0929
25.8977
25.7032
25.5095
25.317
25.1257
24.9358
24.7474
24.5608
24.3759
24.193
24.0123
23.8337
23.6575
23.4838
23.3126
23.1441
22.9784
22.8155
22.6556
22.4987
22.3449
22.1943
22.047
21.903
21.7624
21.6253
21.4916
21.3615
21.235
21.1121
20.9929
20.8774
20.7656
20.6575
20.5533
20.4528
20.3561
20.2632
20.1742
20.0889
20.0075
19.9299
19.8561
19.7861
19.7198
19.6574
19.5987
19.5437
19.4924
19.4448
19.4009
19.3605
19.3238
19.2906
19.261
19.2348
19.2121
19.1927
19.1768
19.1641
19.1547
19.1486
19.1456
19.1457
19.1489
19.1552
19.1644
19.1766
19.1916
19.2094
19.23
19.2533
19.2792
19.3078
19.3389
19.3724
19.4084
19.4468
19.4875
19.5305
19.5756
19.6229
19.6723
19.7238
19.7772
19.8325
19.8897
19.9487
20.0095
20.072
20.1361
20.2018
20.2691
20.3379
20.4081
20.4797
20.5526
20.6268
20.7023
20.779
20.8568
20.9356
21.0156
21.0965
21.1784
21.2612
21.3449
21.4294
21.5147
21.6007
21.6875
21.7749
21.8629
21.9515
22.0406
22.1302
22.2203
22.3109
22.4018
22.4931
22.5847
22.6766
22.7688
22.8612
22.9538
23.0466
23.1396
23.2326
23.3257
23.4189
23.5121
23.6054
23.6986
23.7917
23.8848
23.9778
24.0707
24.1634
24.256
24.3484
24.4406
24.5326
24.6244
24.7158
24.807
24.898
24.9886
25.0788
25.1688
25.2583
25.3475
25.4363
25.5247
25.6127
25.7002
25.7873
25.874
25.9601
26.0458
26.131
26.2157
26.2999
26.3836
26.4667
26.5493
26.6313
26.7128
26.7936
26.874
26.9537
27.0328
27.1114
27.1893
27.2666
27.3433
27.4194
27.4948
27.5696
27.6437
27.7172
27.7901
27.8623
27.9338
28.0046
28.0748
28.1443
28.2131
28.2813
28.3487
28.4155
28.4816
28.547
28.6116
28.6756
28.7389
28.8015
28.8633
28.9245
28.9849
29.0447
29.1037
29.162
29.2195
29.2764
29.3325
29.388
29.4427
29.4966
29.5499
29.6024
29.6542
29.7053
29.7556
29.8052
29.8541
29.9023
29.9497
29.9964
30.0424
30.0876
30.1322
30.176
30.219
30.2614
30.303
30.3438
30.384
30.4234
30.4621
30.5001
30.5373
30.5738
30.6096
30.6447
30.679
30.7126
30.7455
30.7776
30.8091
30.8398
30.8698
30.8991
30.9276
30.9554
30.9825
31.0089
31.0346
31.0595
31.0838
31.1073
31.13
31.1521
31.1735
31.1941
31.214
31.2332
31.2517
31.2695
31.2866
31.3029
31.3185
31.3335
31.3477
31.3612
31.374
31.386
31.3974
31.408
31.418
31.4272
31.4357
31.4435
31.4506
31.457
31.4627
31.4676
31.4719
31.4755
31.4783
31.4804
31.4818
31.4825
31.4753
31.4609
31.432
31.3893
31.3335
31.2653
31.1858
31.0956
30.9957
30.8869
30.7698
30.6452
30.5135
30.3753
30.2311
30.0814
29.9266
29.7669
29.6029
29.4348
29.263
29.0878
28.9094
28.7281
28.5443
28.3581
28.1699
27.9799
27.7884
27.5955
27.4015
27.2067
27.0112
26.8153
26.6192
26.4231
26.2272
26.0316
25.8366
25.6423
25.4489
25.2567
25.0656
24.876
24.6879
24.5015
24.3169
24.1343
23.9538
23.7756
23.5997
23.4262
23.2553
23.0871
22.9217
22.7591
22.5995
22.4429
22.2894
22.1391
21.9921
21.8484
21.7081
21.5712
21.4378
21.308
21.1818
21.0592
20.9403
20.825
20.7135
20.6058
20.5018
20.4016
20.3052
20.2126
20.1238
20.0388
19.9577
19.8803
19.8068
19.737
19.671
19.6088
19.5504
19.4957
19.4446
19.3973
19.3536
19.3135
19.277
19.2441
19.2146
19.1887
19.1662
19.1471
19.1313
19.1189
19.1097
19.1038
19.101
19.1013
19.1047
19.1112
19.1206
19.1329
19.1481
19.1661
19.1869
19.2104
19.2365
19.2652
19.2964
19.3302
19.3663
19.4049
19.4457
19.4888
19.5341
19.5815
19.631
19.6826
19.7361
19.7916
19.8489
19.908
19.9689
20.0315
20.0957
20.1615
20.2289
20.2977
20.368
20.4397
20.5127
20.587
20.6626
20.7393
20.8171
20.8961
20.9761
21.0571
21.139
21.2219
21.3056
21.3902
21.4755
21.5615
21.6483
21.7357
21.8237
21.9124
22.0015
22.0912
22.1813
22.2718
22.3628
22.4541
22.5457
22.6376
22.7298
22.8222
22.9148
23.0076
23.1005
23.1935
23.2866
23.3798
23.473
23.5662
23.6594
23.7525
23.8456
23.9386
24.0314
24.1241
24.2167
24.3091
24.4012
24.4932
24.5849
24.6763
24.7675
24.8583
24.9489
25.0391
25.129
25.2185
25.3077
25.3964
25.4848
25.5727
25.6602
25.7472
25.8338
25.9199
26.0056
26.0907
26.1753
26.2595
26.3431
26.4261
26.5086
26.5906
26.672
26.7528
26.8331
26.9128
26.9918
27.0703
27.1482
27.2254
27.302
27.378
27.4534
27.5281
27.6022
27.6757
27.7484
27.8206
27.892
27.9628
28.0329
28.1024
28.1711
28.2392
28.3066
28.3733
28.4393
28.5046
28.5693
28.6332
28.6964
28.7589
28.8207
28.8818
28.9422
29.0018
29.0608
29.119
29.1765
29.2333
29.2894
29.3448
29.3994
29.4533
29.5065
29.559
29.6107
29.6618
29.7121
29.7616
29.8105
29.8586
29.9059
29.9526
29.9985
30.0437
30.0882
30.1319
30.1749
30.2172
30.2588
30.2996
30.3397
30.3791
30.4177
30.4557
30.4929
30.5293
30.5651
30.6001
30.6344
30.668
30.7008
30.7329
30.7643
30.795
30.825
30.8542
30.8827
30.9105
30.9376
30.9639
30.9896
31.0145
31.0387
31.0622
31.0849
31.107
31.1283
31.1489
31.1688
31.188
31.2064
31.2242
31.2412
31.2576
31.2732
31.2881
31.3023
31.3158
31.3285
31.3406
31.3519
31.3626
31.3725
31.3817
31.3902
31.398
31.4051
31.4115
31.4171
31.4221
31.4264
31.4299
31.4327
31.4349
31.4363
31.437
31.4233
31.4092
31.3807
31.3387
31.2836
31.2163
31.1376
31.0482
30.9489
30.8406
30.7238
30.5994
30.4678
30.3297
30.1855
30.0357
29.8807
29.7209
29.5567
29.3885
29.2165
29.0411
28.8626
28.6812
28.4972
28.311
28.1227
27.9327
27.7411
27.5482
27.3542
27.1594
26.964
26.7681
26.572
26.376
26.1801
25.9846
25.7897
25.5955
25.4023
25.2101
25.0192
24.8297
24.6417
24.4554
24.271
24.0886
23.9082
23.7301
23.5544
23.3811
23.2104
23.0423
22.8771
22.7147
22.5552
22.3988
22.2455
22.0954
21.9486
21.8051
21.665
21.5284
21.3952
21.2656
21.1396
21.0172
20.8985
20.7835
20.6722
20.5647
20.4609
20.361
20.2648
20.1724
20.0839
19.9992
19.9182
19.8411
19.7678
19.6983
19.6326
19.5707
19.5124
19.458
19.4072
19.3601
19.3166
19.2768
19.2405
19.2078
19.1787
19.153
19.1307
19.1119
19.0963
19.0842
19.0752
19.0695
19.067
19.0676
19.0712
19.0779
19.0875
19.1001
19.1155
19.1338
19.1548
19.1785
19.2048
19.2338
19.2652
19.2992
19.3356
19.3743
19.4153
19.4586
19.5042
19.5518
19.6015
19.6533
19.707
19.7627
19.8202
19.8795
19.9405
20.0033
20.0677
20.1337
20.2013
20.2703
20.3408
20.4126
20.4858
20.5602
20.6359
20.7128
20.7908
20.8699
20.9501
21.0312
21.1133
21.1963
21.2802
21.3648
21.4503
21.5365
21.6234
21.7109
21.799
21.8878
21.977
22.0668
22.157
22.2477
22.3387
22.4301
22.5218
22.6138
22.7061
22.7986
22.8913
22.9842
23.0772
23.1703
23.2635
23.3567
23.45
23.5432
23.6365
23.7297
23.8228
23.9158
24.0088
24.1015
24.1941
24.2865
24.3788
24.4708
24.5625
24.654
24.7452
24.8361
24.9267
25.017
25.1069
25.1964
25.2856
25.3744
25.4628
25.5507
25.6382
25.7253
25.8119
25.898
25.9837
26.0689
26.1535
26.2377
26.3213
26.4043
26.4869
26.5688
26.6503
26.7311
26.8114
26.891
26.9701
27.0486
27.1265
27.2037
27.2803
27.3563
27.4317
27.5064
27.5805
27.654
27.7267
27.7989
27.8703
27.9411
28.0112
28.0807
28.1494
28.2175
28.2849
28.3516
28.4176
28.4829
28.5475
28.6114
28.6746
28.7371
28.7989
28.86
28.9203
28.98
29.0389
29.0972
29.1547
29.2115
29.2675
29.3229
29.3775
29.4314
29.4846
29.537
29.5888
29.6398
29.6901
29.7396
29.7884
29.8365
29.8839
29.9305
29.9764
30.0216
30.0661
30.1098
30.1528
30.1951
30.2366
30.2774
30.3175
30.3569
30.3955
30.4334
30.4706
30.5071
30.5428
30.5778
30.6121
30.6457
30.6785
30.7106
30.742
30.7727
30.8026
30.8318
30.8603
30.8881
30.9152
30.9415
30.9671
30.992
31.0162
31.0397
31.0625
31.0845
31.1058
31.1264
31.1463
31.1655
31.1839
31.2017
31.2187
31.235
31.2506
31.2655
31.2797
31.2932
31.306
31.318
31.3294
31.34
31.3499
31.3591
31.3676
31.3754
31.3825
31.3889
31.3945
31.3995
31.4038
31.4073
31.4101
31.4122
31.4137
31.4144
31.3576
31.3435
31.3152
31.2734
31.2186
31.1515
31.0728
30.9835
30.8842
30.7758
30.6589
30.5343
30.4024
30.264
30.1194
29.9693
29.814
29.654
29.4895
29.321
29.1489
28.9733
28.7946
28.6132
28.4292
28.2429
28.0546
27.8646
27.673
27.4802
27.2863
27.0916
26.8963
26.7006
26.5047
26.3088
26.1131
25.9178
25.7231
25.5291
25.336
25.1441
24.9534
24.7641
24.5764
24.3904
24.2062
24.024
23.844
23.6661
23.4907
23.3177
23.1472
22.9795
22.8145
22.6524
22.4932
22.3371
22.1841
22.0343
21.8878
21.7446
21.6048
21.4685
21.3356
21.2064
21.0807
20.9586
20.8402
20.7255
20.6145
20.5073
20.4039
20.3042
20.2084
20.1163
20.0281
19.9437
19.8631
19.7863
19.7133
19.6442
19.5787
19.5171
19.4592
19.405
19.3546
19.3078
19.2646
19.2251
19.1892
19.1568
19.1279
19.1025
19.0805
19.062
19.0468
19.0349
19.0262
19.0208
19.0186
19.0194
19.0234
19.0303
19.0402
19.0531
19.0688
19.0873
19.1085
19.1325
19.1591
19.1883
19.22
19.2542
19.2908
19.3298
19.371
19.4146
19.4603
19.5082
19.5581
19.6101
19.664
19.7199
19.7776
19.8371
19.8983
19.9613
20.0259
20.0921
20.1598
20.229
20.2996
20.3716
20.445
20.5196
20.5954
20.6725
20.7506
20.8299
20.9101
20.9914
21.0736
21.1567
21.2407
21.3255
21.4111
21.4974
21.5844
21.672
21.7603
21.8491
21.9384
22.0283
22.1186
22.2093
22.3004
22.3919
22.4837
22.5758
22.6681
22.7607
22.8534
22.9463
23.0394
23.1325
23.2258
23.3191
23.4124
23.5057
23.599
23.6922
23.7853
23.8784
23.9713
24.0641
24.1568
24.2492
24.3414
24.4334
24.5252
24.6167
24.7079
24.7988
24.8894
24.9797
25.0696
25.1591
25.2483
25.3371
25.4254
25.5134
25.6009
25.688
25.7746
25.8607
25.9463
26.0315
26.1161
26.2002
26.2838
26.3669
26.4494
26.5313
26.6127
26.6935
26.7737
26.8534
26.9324
27.0109
27.0887
27.1659
27.2425
27.3185
27.3938
27.4685
27.5426
27.616
27.6887
27.7608
27.8322
27.903
27.9731
28.0425
28.1112
28.1792
28.2466
28.3132
28.3792
28.4444
28.509
28.5729
28.636
28.6985
28.7603
28.8213
28.8816
28.9412
29.0001
29.0583
29.1158
29.1725
29.2286
29.2839
29.3385
29.3923
29.4455
29.4979
29.5496
29.6005
29.6508
29.7003
29.7491
29.7971
29.8445
29.8911
29.9369
29.9821
30.0265
30.0702
30.1132
30.1554
30.1969
30.2377
30.2777
30.3171
30.3557
30.3935
30.4307
30.4671
30.5028
30.5378
30.572
30.6056
30.6384
30.6705
30.7018
30.7325
30.7624
30.7916
30.82
30.8478
30.8748
30.9012
30.9268
30.9516
30.9758
30.9992
31.022
31.044
31.0653
31.0859
31.1057
31.1249
31.1433
31.1611
31.1781
31.1944
31.21
31.2249
31.239
31.2525
31.2653
31.2773
31.2886
31.2992
31.3092
31.3184
31.3268
31.3346
31.3417
31.3481
31.3537
31.3587
31.3629
31.3665
31.3693
31.3714
31.3728
31.3736
31.2926
31.2788
31.251
31.2099
31.1559
31.0897
31.012
30.9235
30.825
30.7172
30.6008
30.4765
30.3449
30.2065
30.062
29.9119
29.7565
29.5963
29.4317
29.263
29.0907
28.9149
28.7361
28.5545
28.3704
28.184
27.9956
27.8055
27.6139
27.4211
27.2272
27.0325
26.8372
26.6415
26.4456
26.2498
26.0542
25.859
25.6643
25.4705
25.2775
25.0857
24.8952
24.706
24.5185
24.3326
24.1486
23.9666
23.7867
23.6091
23.4338
23.261
23.0907
22.9232
22.7584
22.5965
22.4376
22.2817
22.129
21.9795
21.8332
21.6902
21.5507
21.4146
21.282
21.153
21.0276
20.9058
20.7877
20.6733
20.5626
20.4557
20.3525
20.2532
20.1576
20.0659
19.978
19.8939
19.8136
19.7371
19.6644
19.5956
19.5305
19.4692
19.4116
19.3577
19.3076
19.2611
19.2183
19.1791
19.1435
19.1114
19.0829
19.0578
19.0362
19.018
19.0031
18.9915
18.9832
18.9781
18.9762
18.9773
18.9816
18.9889
18.9991
19.0123
19.0283
19.0471
19.0687
19.0929
19.1198
19.1493
19.1813
19.2158
19.2527
19.292
19.3336
19.3774
19.4234
19.4716
19.5218
19.574
19.6283
19.6844
19.7424
19.8021
19.8636
19.9269
19.9917
20.0581
20.1261
20.1955
20.2664
20.3387
20.4122
20.4871
20.5631
20.6404
20.7188
20.7982
20.8787
20.9602
21.0426
21.1259
21.2101
21.2951
21.3808
21.4673
21.5545
21.6423
21.7307
21.8197
21.9092
21.9992
22.0897
22.1805
22.2718
22.3634
22.4554
22.5476
22.64
22.7327
22.8256
22.9187
23.0118
23.1051
23.1985
23.2919
23.3853
23.4787
23.5721
23.6654
23.7587
23.8518
23.9448
24.0377
24.1304
24.2229
24.3153
24.4073
24.4992
24.5907
24.682
24.773
24.8637
24.954
25.044
25.1336
25.2228
25.3116
25.4001
25.488
25.5756
25.6627
25.7493
25.8355
25.9212
26.0064
26.091
26.1752
26.2588
26.3419
26.4244
26.5064
26.5878
26.6687
26.7489
26.8286
26.9077
26.9861
27.064
27.1412
27.2178
27.2938
27.3692
27.4439
27.5179
27.5913
27.6641
27.7362
27.8076
27.8783
27.9484
28.0178
28.0865
28.1546
28.2219
28.2886
28.3546
28.4198
28.4844
28.5482
28.6114
28.6739
28.7356
28.7966
28.857
28.9166
28.9755
29.0337
29.0911
29.1479
29.2039
29.2592
29.3138
29.3676
29.4207
29.4731
29.5248
29.5758
29.626
29.6755
29.7243
29.7723
29.8196
29.8662
29.9121
29.9572
30.0016
30.0453
30.0883
30.1305
30.172
30.2128
30.2528
30.2921
30.3307
30.3686
30.4057
30.4421
30.4778
30.5128
30.547
30.5805
30.6133
30.6454
30.6768
30.7074
30.7373
30.7665
30.7949
30.8227
30.8497
30.876
30.9016
30.9265
30.9506
30.9741
30.9968
31.0188
31.0401
31.0607
31.0805
31.0997
31.1181
31.1358
31.1528
31.1691
31.1847
31.1996
31.2138
31.2272
31.24
31.252
31.2633
31.2739
31.2839
31.2931
31.3015
31.3093
31.3164
31.3228
31.3284
31.3334
31.3376
31.3412
31.344
31.3461
31.3475
31.3482
31.2164
31.2027
31.1753
31.1346
31.0811
31.0155
30.9383
30.8503
30.7521
30.6446
30.5284
30.4042
30.2726
30.1342
29.9896
29.8392
29.6836
29.5232
29.3584
29.1895
29.017
28.8411
28.6621
28.4803
28.2961
28.1096
27.9212
27.7311
27.5395
27.3467
27.1528
26.9581
26.7629
26.5673
26.3716
26.1759
25.9804
25.7853
25.5909
25.3972
25.2045
25.0128
24.8225
24.6336
24.4462
24.2606
24.0769
23.8951
23.7155
23.5381
23.3631
23.1906
23.0206
22.8534
22.6889
22.5273
22.3687
22.2131
22.0607
21.9114
21.7655
21.6229
21.4837
21.3479
21.2157
21.087
20.9619
20.8405
20.7227
20.6087
20.4984
20.3918
20.289
20.19
20.0948
20.0035
19.9159
19.8322
19.7523
19.6762
19.6039
19.5354
19.4707
19.4097
19.3525
19.299
19.2493
19.2032
19.1607
19.1219
19.0867
19.055
19.0268
19.0021
18.9809
18.963
18.9485
18.9373
18.9294
18.9246
18.9231
18.9246
18.9292
18.9369
18.9475
18.961
18.9773
18.9965
19.0184
19.043
19.0703
19.1001
19.1324
19.1673
19.2045
19.2441
19.286
19.3301
19.3764
19.4249
19.4754
19.528
19.5825
19.6389
19.6971
19.7572
19.819
19.8825
19.9476
20.0143
20.0825
20.1522
20.2233
20.2958
20.3696
20.4447
20.521
20.5985
20.677
20.7567
20.8374
20.9191
21.0017
21.0852
21.1696
21.2548
21.3407
21.4274
21.5147
21.6027
21.6913
21.7804
21.8701
21.9603
22.0509
22.1419
22.2333
22.3251
22.4171
22.5095
22.6021
22.6949
22.7879
22.8811
22.9743
23.0677
23.1612
23.2547
23.3482
23.4417
23.5352
23.6286
23.7219
23.8151
23.9082
24.0012
24.094
24.1866
24.2789
24.3711
24.463
24.5546
24.6459
24.737
24.8277
24.918
25.0081
25.0977
25.187
25.2758
25.3643
25.4523
25.5399
25.627
25.7137
25.7999
25.8856
25.9708
26.0554
26.1396
26.2232
26.3063
26.3889
26.4709
26.5523
26.6331
26.7134
26.7931
26.8721
26.9506
27.0284
27.1057
27.1823
27.2583
27.3336
27.4083
27.4823
27.5557
27.6285
27.7006
27.772
27.8427
27.9128
27.9822
28.0509
28.1189
28.1862
28.2529
28.3188
28.384
28.4486
28.5124
28.5756
28.638
28.6997
28.7607
28.821
28.8806
28.9395
28.9977
29.0551
29.1118
29.1678
29.2231
29.2776
29.3315
29.3846
29.4369
29.4886
29.5395
29.5897
29.6392
29.6879
29.736
29.7833
29.8298
29.8757
29.9208
29.9651
30.0088
30.0517
30.0939
30.1354
30.1761
30.2162
30.2555
30.294
30.3319
30.369
30.4054
30.441
30.476
30.5102
30.5437
30.5765
30.6085
30.6398
30.6704
30.7003
30.7295
30.7579
30.7856
30.8127
30.8389
30.8645
30.8894
30.9135
30.9369
30.9596
30.9816
31.0029
31.0235
31.0433
31.0624
31.0809
31.0986
31.1156
31.1318
31.1474
31.1623
31.1764
31.1899
31.2026
31.2146
31.226
31.2366
31.2465
31.2557
31.2641
31.2719
31.279
31.2853
31.291
31.2959
31.3002
31.3037
31.3065
31.3087
31.3101
31.3108
31.1393
31.1259
31.0989
31.059
31.0064
30.9417
30.8654
30.7783
30.681
30.5742
30.4586
30.3349
30.2036
30.0654
29.9209
29.7706
29.615
29.4545
29.2896
29.1206
28.9478
28.7718
28.5926
28.4107
28.2264
28.0398
27.8513
27.6611
27.4694
27.2765
27.0826
26.888
26.6928
26.4972
26.3015
26.1059
25.9104
25.7155
25.5211
25.3275
25.1349
24.9435
24.7533
24.5645
24.3773
24.1919
24.0083
23.8268
23.6473
23.4702
23.2954
23.1231
22.9534
22.7863
22.6221
22.4608
22.3024
22.1472
21.995
21.8461
21.7004
21.5581
21.4192
21.2837
21.1518
21.0234
20.8987
20.7776
20.6602
20.5464
20.4365
20.3303
20.2278
20.1292
20.0344
19.9434
19.8562
19.7728
19.6933
19.6176
19.5457
19.4776
19.4132
19.3527
19.2959
19.2428
19.1935
19.1478
19.1057
19.0673
19.0325
19.0012
18.9734
18.9492
18.9283
18.9109
18.8967
18.886
18.8784
18.8741
18.8729
18.8749
18.8799
18.8879
18.8989
18.9128
18.9296
18.9492
18.9715
18.9965
19.0241
19.0543
19.0871
19.1223
19.1599
19.1998
19.2421
19.2866
19.3333
19.3821
19.433
19.4859
19.5407
19.5975
19.6561
19.7165
19.7786
19.8425
19.9079
19.9749
20.0435
20.1135
20.1849
20.2577
20.3318
20.4072
20.4838
20.5615
20.6404
20.7203
20.8013
20.8833
20.9661
21.0499
21.1345
21.22
21.3062
21.3931
21.4806
21.5688
21.6577
21.747
21.8369
21.9273
22.0181
22.1093
22.2009
22.2929
22.3852
22.4777
22.5705
22.6635
22.7566
22.85
22.9434
23.037
23.1306
23.2242
23.3179
23.4115
23.5052
23.5987
23.6922
23.7855
23.8788
23.9718
24.0647
24.1574
24.2499
24.3422
24.4342
24.5259
24.6174
24.7085
24.7993
24.8897
24.9798
25.0696
25.1589
25.2479
25.3364
25.4245
25.5121
25.5993
25.6861
25.7723
25.8581
25.9433
26.0281
26.1123
26.196
26.2791
26.3617
26.4438
26.5252
26.6061
26.6864
26.7661
26.8452
26.9237
27.0016
27.0789
27.1555
27.2315
27.3069
27.3816
27.4557
27.5291
27.6019
27.6739
27.7454
27.8161
27.8862
27.9556
28.0243
28.0924
28.1597
28.2264
28.2923
28.3576
28.4221
28.486
28.5491
28.6115
28.6733
28.7343
28.7946
28.8542
28.9131
28.9712
29.0286
29.0854
29.1414
29.1966
29.2512
29.305
29.3581
29.4105
29.4621
29.513
29.5632
29.6127
29.6614
29.7095
29.7567
29.8033
29.8491
29.8942
29.9386
29.9823
30.0252
30.0674
30.1088
30.1496
30.1896
30.2289
30.2674
30.3052
30.3423
30.3787
30.4144
30.4493
30.4835
30.517
30.5498
30.5818
30.6131
30.6437
30.6736
30.7027
30.7312
30.7589
30.7859
30.8122
30.8377
30.8626
30.8867
30.9101
30.9328
30.9548
30.9761
30.9966
31.0165
31.0356
31.054
31.0717
31.0887
31.105
31.1205
31.1354
31.1496
31.163
31.1757
31.1877
31.1991
31.2097
31.2195
31.2287
31.2372
31.245
31.2521
31.2584
31.2641
31.269
31.2732
31.2768
31.2796
31.2817
31.2831
31.2838
31.0528
31.0396
31.013
30.9736
30.9217
30.8577
30.7821
30.6957
30.599
30.4928
30.3776
30.2542
30.1232
29.9851
29.8407
29.6903
29.5346
29.374
29.2089
29.0397
28.8668
28.6906
28.5113
28.3293
28.1448
27.9581
27.7695
27.5792
27.3875
27.1946
27.0008
26.8061
26.611
26.4155
26.2199
26.0243
25.829
25.6342
25.44
25.2466
25.0541
24.8629
24.6728
24.4843
24.2973
24.1121
23.9288
23.7475
23.5683
23.3914
23.2169
23.0449
22.8755
22.7088
22.5449
22.3838
22.2258
22.0708
21.919
21.7704
21.6251
21.4831
21.3446
21.2095
21.078
20.95
20.8256
20.7049
20.5878
20.4745
20.365
20.2592
20.1571
20.0589
19.9645
19.8739
19.7872
19.7042
19.6251
19.5498
19.4784
19.4107
19.3468
19.2867
19.2304
19.1777
19.1288
19.0836
19.042
19.004
18.9696
18.9388
18.9115
18.8877
18.8673
18.8503
18.8366
18.8263
18.8192
18.8153
18.8146
18.817
18.8225
18.8309
18.8424
18.8567
18.8739
18.8939
18.9166
18.9421
18.9701
19.0008
19.0339
19.0695
19.1076
19.1479
19.1906
19.2355
19.2826
19.3318
19.3831
19.4363
19.4916
19.5487
19.6077
19.6684
19.7309
19.7951
19.8609
19.9282
19.9971
20.0675
20.1392
20.2123
20.2868
20.3625
20.4394
20.5174
20.5966
20.6768
20.7581
20.8403
20.9235
21.0075
21.0924
21.1781
21.2645
21.3517
21.4395
21.528
21.617
21.7066
21.7967
21.8873
21.9784
22.0698
22.1616
22.2538
22.3462
22.4389
22.5319