/*--------------------------------*- C++ -*----------------------------------*\
| =========                 |                                                 |
| \\      /  F ield         | OpenFOAM: The Open Source CFD Toolbox           |
|  \\    /   O peration     | Version:  2212                                  |
|   \\  /    A nd           | Website:  www.openfoam.com                      |
|    \\/     M anipulation  |                                                 |
\*---------------------------------------------------------------------------*/
FoamFile
{
    version     2.0;
    format      ascii;
    arch        "LSB;label=32;scalar=64";
    class       volScalarField;
    location    "440";
    object      p_rgh_0;
}
// * * * * * * * * * * * * * * * * * * * * * * * * * * * * * * * * * * * * * //

dimensions      [1 -1 -2 0 0 0 0];

internalField   nonuniform List<scalar> 
204800
(
31.8879
31.8752
31.8494
31.8113
31.761
31.6992
31.6262
31.5428
31.4494
31.3467
31.2353
31.1158
30.9887
30.8547
30.7143
30.5678
30.4158
30.2587
30.0968
29.9305
29.7602
29.5862
29.4088
29.2282
29.0448
28.8589
28.6706
28.4803
28.2882
28.0946
27.8997
27.7036
27.5068
27.3093
27.1114
26.9132
26.7151
26.5171
26.3195
26.1225
25.9262
25.7307
25.5364
25.3433
25.1516
24.9614
24.7729
24.5862
24.4014
24.2188
24.0384
23.8603
23.6846
23.5115
23.3411
23.1734
23.0085
22.8466
22.6878
22.532
22.3794
22.2301
22.0841
21.9415
21.8023
21.6666
21.5344
21.4059
21.281
21.1597
21.0422
20.9284
20.8184
20.7121
20.6097
20.511
20.4162
20.3253
20.2381
20.1548
20.0754
19.9998
19.9281
19.8601
19.796
19.7356
19.6791
19.6263
19.5772
19.5318
19.4902
19.4521
19.4177
19.3869
19.3596
19.3359
19.3156
19.2988
19.2854
19.2753
19.2686
19.2651
19.2648
19.2677
19.2737
19.2829
19.295
19.3101
19.3282
19.3491
19.3728
19.3993
19.4285
19.4604
19.4949
19.5319
19.5714
19.6134
19.6578
19.7045
19.7535
19.8046
19.858
19.9135
19.971
20.0305
20.092
20.1554
20.2206
20.2876
20.3564
20.4268
20.4989
20.5725
20.6477
20.7244
20.8025
20.8819
20.9627
21.0448
21.1281
21.2126
21.2982
21.385
21.4727
21.5615
21.6513
21.7419
21.8335
21.9259
22.019
22.1129
22.2076
22.3029
22.3988
22.4953
22.5924
22.69
22.7881
22.8866
22.9855
23.0849
23.1845
23.2845
23.3848
23.4853
23.586
23.687
23.788
23.8893
23.9906
24.092
24.1934
24.2949
24.3964
24.4978
24.5992
24.7006
24.8018
24.9029
25.0039
25.1046
25.2053
25.3057
25.4058
25.5058
25.6054
25.7048
25.8039
25.9026
26.0011
26.0991
26.1968
26.2941
26.391
26.4875
26.5835
26.6791
26.7743
26.869
26.9631
27.0568
27.15
27.2426
27.3347
27.4263
27.5173
27.6077
27.6976
27.7868
27.8755
27.9635
28.0509
28.1377
28.2239
28.3094
28.3943
28.4785
28.562
28.6449
28.7271
28.8086
28.8894
28.9694
29.0488
29.1275
29.2054
29.2827
29.3591
29.4349
29.5099
29.5841
29.6576
29.7304
29.8024
29.8736
29.944
30.0137
30.0826
30.1507
30.2181
30.2846
30.3504
30.4153
30.4795
30.5428
30.6054
30.6671
30.7281
30.7882
30.8475
30.906
30.9637
31.0206
31.0766
31.1318
31.1862
31.2398
31.2925
31.3444
31.3955
31.4457
31.4951
31.5437
31.5915
31.6384
31.6844
31.7296
31.774
31.8175
31.8602
31.9021
31.9431
31.9832
32.0226
32.061
32.0986
32.1354
32.1713
32.2064
32.2406
32.274
32.3065
32.3382
32.369
32.3989
32.428
32.4563
32.4837
32.5102
32.5359
32.5607
32.5847
32.6078
32.6301
32.6515
32.6721
32.6918
32.7106
32.7286
32.7458
32.762
32.7775
32.792
32.8057
32.8186
32.8306
32.8417
32.852
32.8614
32.87
32.8777
32.8846
32.8906
32.8957
32.9
32.9034
32.906
32.9077
32.9086
31.8641
31.8497
31.8212
31.7795
31.725
31.6588
31.5816
31.4943
31.3975
31.292
31.1783
31.0571
30.9287
30.7938
30.6527
30.5058
30.3536
30.1963
30.0345
29.8683
29.6982
29.5243
29.3471
29.1668
28.9837
28.7981
28.6101
28.4202
28.2284
28.0351
27.8405
27.6449
27.4483
27.2512
27.0537
26.8559
26.6581
26.4605
26.2633
26.0666
25.8707
25.6756
25.4817
25.2889
25.0976
24.9078
24.7196
24.5333
24.3489
24.1666
23.9866
23.8088
23.6335
23.4607
23.2906
23.1233
22.9588
22.7972
22.6386
22.4832
22.3309
22.1819
22.0362
21.8939
21.755
21.6196
21.4877
21.3594
21.2348
21.1138
20.9965
20.8829
20.7731
20.6671
20.5649
20.4665
20.3719
20.2811
20.1942
20.1111
20.0318
19.9564
19.8848
19.817
19.7531
19.6929
19.6364
19.5838
19.5348
19.4896
19.448
19.4101
19.3758
19.3451
19.3179
19.2942
19.2741
19.2573
19.2439
19.2339
19.2272
19.2238
19.2235
19.2265
19.2325
19.2417
19.2538
19.269
19.287
19.3079
19.3316
19.3581
19.3873
19.4192
19.4536
19.4906
19.5301
19.5721
19.6164
19.663
19.7119
19.7631
19.8164
19.8718
19.9292
19.9887
20.0501
20.1134
20.1785
20.2454
20.3141
20.3844
20.4564
20.5299
20.605
20.6815
20.7595
20.8388
20.9195
21.0014
21.0846
21.169
21.2545
21.3411
21.4287
21.5173
21.6069
21.6975
21.7889
21.8811
21.9741
22.0679
22.1623
22.2575
22.3532
22.4496
22.5465
22.6439
22.7419
22.8402
22.939
23.0381
23.1376
23.2375
23.3376
23.4379
23.5385
23.6392
23.7401
23.8412
23.9423
24.0435
24.1448
24.2461
24.3474
24.4487
24.5499
24.651
24.7521
24.853
24.9538
25.0544
25.1548
25.2551
25.3551
25.4548
25.5543
25.6535
25.7524
25.851
25.9492
26.0471
26.1446
26.2417
26.3385
26.4348
26.5307
26.6261
26.7211
26.8155
26.9096
27.0031
27.0961
27.1885
27.2805
27.3719
27.4627
27.5529
27.6426
27.7317
27.8202
27.9081
27.9954
28.082
28.168
28.2534
28.3381
28.4221
28.5055
28.5882
28.6702
28.7516
28.8322
28.9122
28.9914
29.0699
29.1477
29.2248
29.3011
29.3767
29.4516
29.5257
29.5991
29.6717
29.7435
29.8146
29.885
29.9545
30.0233
30.0913
30.1585
30.2249
30.2905
30.3553
30.4194
30.4826
30.545
30.6067
30.6675
30.7275
30.7867
30.8451
30.9027
30.9594
31.0154
31.0705
31.1248
31.1782
31.2309
31.2827
31.3337
31.3838
31.4331
31.4816
31.5293
31.5761
31.622
31.6672
31.7115
31.7549
31.7975
31.8393
31.8802
31.9203
31.9595
31.9979
32.0355
32.0722
32.108
32.143
32.1772
32.2105
32.2429
32.2745
32.3053
32.3352
32.3642
32.3924
32.4198
32.4463
32.4719
32.4967
32.5206
32.5437
32.5659
32.5873
32.6078
32.6275
32.6463
32.6643
32.6814
32.6976
32.713
32.7276
32.7412
32.7541
32.766
32.7772
32.7874
32.7968
32.8054
32.8131
32.8199
32.8259
32.831
32.8353
32.8387
32.8413
32.843
32.8439
31.8445
31.8303
31.802
31.7606
31.7065
31.6407
31.5637
31.4766
31.38
31.2745
31.1609
31.0396
30.9112
30.7761
30.6349
30.4879
30.3356
30.1783
30.0163
29.8501
29.6798
29.5059
29.3287
29.1483
28.9652
28.7795
28.5915
28.4015
28.2097
28.0165
27.8219
27.6262
27.4297
27.2326
27.0351
26.8373
26.6396
26.442
26.2448
26.0482
25.8523
25.6573
25.4634
25.2707
25.0794
24.8896
24.7016
24.5153
24.331
24.1488
23.9688
23.7911
23.6158
23.4431
23.2731
23.1058
22.9414
22.7799
22.6214
22.4661
22.3139
22.1649
22.0193
21.877
21.7382
21.6029
21.4711
21.3429
21.2183
21.0974
20.9802
20.8668
20.757
20.6511
20.549
20.4506
20.3561
20.2655
20.1786
20.0956
20.0164
19.9411
19.8696
19.8019
19.738
19.6779
19.6216
19.569
19.5201
19.475
19.4335
19.3957
19.3614
19.3308
19.3037
19.2801
19.26
19.2434
19.2301
19.2201
19.2135
19.2101
19.21
19.213
19.2192
19.2284
19.2406
19.2558
19.2739
19.2949
19.3187
19.3452
19.3745
19.4064
19.441
19.478
19.5176
19.5596
19.6039
19.6507
19.6996
19.7508
19.8042
19.8596
19.9171
19.9767
20.0381
20.1015
20.1666
20.2336
20.3023
20.3727
20.4447
20.5183
20.5934
20.67
20.748
20.8274
20.9081
20.9901
21.0733
21.1577
21.2432
21.3298
21.4175
21.5062
21.5958
21.6864
21.7778
21.87
21.9631
22.0569
22.1514
22.2465
22.3423
22.4387
22.5356
22.6331
22.731
22.8294
22.9282
23.0274
23.1269
23.2267
23.3268
23.4272
23.5278
23.6285
23.7294
23.8305
23.9317
24.0329
24.1342
24.2355
24.3368
24.438
24.5393
24.6404
24.7415
24.8424
24.9432
25.0438
25.1442
25.2444
25.3444
25.4442
25.5437
25.6429
25.7418
25.8403
25.9386
26.0365
26.134
26.2311
26.3278
26.4241
26.52
26.6154
26.7104
26.8048
26.8988
26.9923
27.0853
27.1778
27.2697
27.3611
27.4519
27.5422
27.6318
27.7209
27.8094
27.8973
27.9845
28.0712
28.1571
28.2425
28.3272
28.4112
28.4946
28.5773
28.6593
28.7406
28.8213
28.9012
28.9804
29.0589
29.1367
29.2138
29.2901
29.3657
29.4405
29.5146
29.588
29.6606
29.7324
29.8035
29.8738
29.9433
30.0121
30.08
30.1472
30.2136
30.2792
30.3441
30.4081
30.4713
30.5337
30.5953
30.6562
30.7162
30.7753
30.8337
30.8913
30.948
31.0039
31.059
31.1133
31.1668
31.2194
31.2712
31.3222
31.3723
31.4216
31.4701
31.5177
31.5645
31.6105
31.6556
31.6999
31.7433
31.7859
31.8277
31.8686
31.9087
31.9479
31.9863
32.0238
32.0605
32.0963
32.1313
32.1655
32.1987
32.2312
32.2628
32.2935
32.3234
32.3525
32.3807
32.408
32.4345
32.4601
32.4849
32.5088
32.5319
32.5541
32.5755
32.596
32.6157
32.6345
32.6524
32.6695
32.6857
32.7011
32.7157
32.7294
32.7422
32.7541
32.7653
32.7755
32.7849
32.7935
32.8012
32.808
32.814
32.8191
32.8234
32.8268
32.8294
32.8311
32.832
31.804
31.7894
31.7602
31.7174
31.6617
31.594
31.5151
31.4261
31.3277
31.2207
31.1056
30.9831
30.8537
30.7179
30.576
30.4285
30.2758
30.1182
29.956
29.7896
29.6194
29.4455
29.2682
29.088
28.9049
28.7194
28.5316
28.3417
28.1502
27.9571
27.7627
27.5673
27.371
27.1742
26.9769
26.7794
26.5819
26.3847
26.1878
25.9914
25.7958
25.6011
25.4075
25.2151
25.0241
24.8346
24.6468
24.4609
24.2769
24.095
23.9152
23.7379
23.5629
23.3905
23.2208
23.0538
22.8897
22.7285
22.5703
22.4152
22.2633
22.1146
21.9693
21.8273
21.6888
21.5537
21.4222
21.2943
21.17
21.0493
20.9324
20.8192
20.7097
20.604
20.5021
20.404
20.3097
20.2193
20.1327
20.0499
19.9709
19.8958
19.8245
19.757
19.6933
19.6334
19.5773
19.5249
19.4762
19.4312
19.3899
19.3522
19.3182
19.2877
19.2608
19.2373
19.2174
19.2008
19.1877
19.1779
19.1714
19.1681
19.1681
19.1712
19.1774
19.1868
19.1991
19.2144
19.2326
19.2536
19.2775
19.3042
19.3335
19.3655
19.4001
19.4372
19.4768
19.5188
19.5633
19.61
19.659
19.7102
19.7636
19.8191
19.8766
19.9361
19.9976
20.061
20.1262
20.1931
20.2618
20.3322
20.4042
20.4778
20.5528
20.6294
20.7074
20.7867
20.8674
20.9494
21.0326
21.1169
21.2024
21.289
21.3766
21.4653
21.5548
21.6453
21.7367
21.8289
21.9219
22.0156
22.11
22.2051
22.3008
22.3971
22.494
22.5914
22.6892
22.7875
22.8862
22.9853
23.0847
23.1845
23.2845
23.3848
23.4852
23.5859
23.6867
23.7877
23.8888
23.9899
24.0911
24.1923
24.2935
24.3946
24.4958
24.5968
24.6977
24.7986
24.8992
24.9997
25.1001
25.2002
25.3001
25.3997
25.4991
25.5982
25.6969
25.7954
25.8935
25.9913
26.0887
26.1857
26.2823
26.3785
26.4742
26.5695
26.6644
26.7588
26.8526
26.946
27.0389
27.1312
27.223
27.3143
27.405
27.4952
27.5847
27.6737
27.762
27.8498
27.9369
28.0235
28.1093
28.1946
28.2792
28.3631
28.4464
28.5289
28.6108
28.6921
28.7726
28.8524
28.9315
29.0099
29.0876
29.1645
29.2408
29.3163
29.391
29.465
29.5383
29.6108
29.6825
29.7535
29.8237
29.8931
29.9618
30.0296
30.0967
30.163
30.2286
30.2933
30.3572
30.4204
30.4827
30.5442
30.6049
30.6649
30.724
30.7823
30.8397
30.8964
30.9522
31.0073
31.0615
31.1148
31.1674
31.2191
31.27
31.3201
31.3693
31.4177
31.4653
31.512
31.5579
31.6029
31.6472
31.6905
31.7331
31.7748
31.8156
31.8556
31.8948
31.9331
31.9706
32.0072
32.043
32.078
32.1121
32.1453
32.1777
32.2092
32.2399
32.2698
32.2988
32.3269
32.3542
32.3807
32.4063
32.431
32.4549
32.478
32.5001
32.5215
32.542
32.5616
32.5804
32.5983
32.6154
32.6316
32.6469
32.6615
32.6751
32.6879
32.6999
32.711
32.7212
32.7306
32.7392
32.7468
32.7537
32.7596
32.7648
32.769
32.7725
32.775
32.7767
32.7776
31.7682
31.7539
31.7252
31.683
31.6279
31.5608
31.4826
31.3941
31.296
31.1892
31.0743
30.9519
30.8224
30.6864
30.5444
30.3967
30.2438
30.086
29.9237
29.7571
29.5867
29.4126
29.2353
29.0549
28.8718
28.6861
28.4982
28.3084
28.1168
27.9236
27.7293
27.5338
27.3376
27.1407
26.9435
26.746
26.5486
26.3514
26.1545
25.9582
25.7627
25.5681
25.3745
25.1822
24.9913
24.8019
24.6142
24.4284
24.2445
24.0626
23.883
23.7058
23.5309
23.3587
23.1891
23.0222
22.8582
22.6971
22.5391
22.3841
22.2323
22.0838
21.9386
21.7968
21.6584
21.5235
21.3921
21.2643
21.1402
21.0197
20.9029
20.7898
20.6805
20.575
20.4732
20.3753
20.2812
20.1909
20.1044
20.0218
19.943
19.868
19.7969
19.7296
19.6661
19.6063
19.5503
19.4981
19.4496
19.4048
19.3636
19.3261
19.2922
19.2619
19.2351
19.2118
19.192
19.1757
19.1627
19.153
19.1467
19.1436
19.1437
19.147
19.1534
19.1628
19.1753
19.1908
19.2091
19.2303
19.2543
19.2811
19.3106
19.3427
19.3774
19.4147
19.4545
19.4966
19.5412
19.5881
19.6372
19.6885
19.742
19.7976
19.8553
19.9149
19.9765
20.04
20.1053
20.1724
20.2412
20.3117
20.3838
20.4574
20.5326
20.6093
20.6874
20.7668
20.8476
20.9296
21.0129
21.0973
21.1829
21.2696
21.3573
21.446
21.5357
21.6262
21.7177
21.8099
21.903
21.9967
22.0912
22.1864
22.2822
22.3785
22.4755
22.5729
22.6708
22.7691
22.8679
22.967
23.0665
23.1663
23.2663
23.3666
23.4672
23.5679
23.6687
23.7697
23.8708
23.972
24.0732
24.1744
24.2756
24.3768
24.478
24.579
24.68
24.7808
24.8815
24.982
25.0824
25.1825
25.2824
25.382
25.4814
25.5805
25.6793
25.7778
25.8759
25.9737
26.0711
26.1681
26.2647
26.3609
26.4566
26.5519
26.6468
26.7411
26.835
26.9284
27.0213
27.1136
27.2054
27.2967
27.3874
27.4775
27.567
27.656
27.7444
27.8321
27.9192
28.0057
28.0916
28.1768
28.2614
28.3453
28.4286
28.5111
28.593
28.6742
28.7547
28.8345
28.9136
28.992
29.0697
29.1466
29.2228
29.2983
29.373
29.447
29.5202
29.5927
29.6644
29.7354
29.8056
29.875
29.9436
30.0115
30.0786
30.1449
30.2104
30.2751
30.339
30.4021
30.4644
30.5259
30.5866
30.6465
30.7056
30.7639
30.8213
30.878
30.9338
30.9888
31.043
31.0963
31.1489
31.2006
31.2515
31.3015
31.3507
31.3991
31.4466
31.4934
31.5392
31.5843
31.6285
31.6718
31.7144
31.756
31.7969
31.8369
31.876
31.9143
31.9518
31.9884
32.0242
32.0591
32.0932
32.1264
32.1588
32.1904
32.221
32.2509
32.2799
32.308
32.3353
32.3617
32.3873
32.412
32.4359
32.4589
32.4811
32.5025
32.5229
32.5426
32.5613
32.5792
32.5963
32.6125
32.6279
32.6424
32.656
32.6688
32.6808
32.6919
32.7021
32.7115
32.72
32.7277
32.7345
32.7405
32.7456
32.7499
32.7533
32.7559
32.7576
32.7584
31.7158
31.7014
31.6725
31.63
31.5745
31.5069
31.428
31.3388
31.2401
31.1325
31.0168
30.8937
30.7635
30.6269
30.4844
30.3362
30.1829
30.0247
29.8621
29.6953
29.5247
29.3505
29.173
28.9926
28.8094
28.6238
28.4359
28.2461
28.0546
27.8616
27.6673
27.472
27.2759
27.0793
26.8822
26.6849
26.4877
26.2907
26.094
25.898
25.7026
25.5082
25.3149
25.1229
24.9322
24.7431
24.5556
24.37
24.1864
24.0048
23.8255
23.6485
23.4739
23.3019
23.1326
22.966
22.8023
22.6415
22.4837
22.329
22.1775
22.0293
21.8844
21.7428
21.6047
21.4701
21.339
21.2115
21.0876
20.9674
20.8508
20.738
20.629
20.5237
20.4223
20.3246
20.2307
20.1407
20.0545
19.9722
19.8936
19.8189
19.748
19.681
19.6177
19.5582
19.5024
19.4504
19.4022
19.3576
19.3167
19.2794
19.2457
19.2156
19.1891
19.166
19.1464
19.1302
19.1175
19.108
19.1019
19.099
19.0993
19.1027
19.1093
19.119
19.1316
19.1472
19.1658
19.1871
19.2113
19.2383
19.2679
19.3002
19.335
19.3724
19.4123
19.4546
19.4993
19.5463
19.5956
19.647
19.7007
19.7564
19.8141
19.8739
19.9356
19.9991
20.0645
20.1317
20.2006
20.2712
20.3433
20.4171
20.4923
20.5691
20.6472
20.7267
20.8075
20.8896
20.973
21.0575
21.1431
21.2298
21.3175
21.4063
21.4959
21.5865
21.678
21.7703
21.8633
21.9571
22.0516
22.1468
22.2426
22.339
22.4359
22.5333
22.6312
22.7295
22.8283
22.9274
23.0269
23.1266
23.2267
23.327
23.4275
23.5281
23.629
23.7299
23.831
23.9321
24.0333
24.1345
24.2357
24.3368
24.4379
24.5389
24.6398
24.7406
24.8413
24.9418
25.042
25.1421
25.242
25.3415
25.4409
25.5399
25.6386
25.737
25.8351
25.9328
26.0302
26.1271
26.2236
26.3198
26.4154
26.5107
26.6055
26.6998
26.7936
26.8869
26.9797
27.072
27.1637
27.2549
27.3455
27.4355
27.525
27.6139
27.7022
27.7899
27.8769
27.9634
28.0492
28.1343
28.2188
28.3026
28.3858
28.4683
28.5501
28.6312
28.7117
28.7914
28.8704
28.9487
29.0263
29.1032
29.1793
29.2547
29.3294
29.4033
29.4765
29.5489
29.6205
29.6914
29.7615
29.8309
29.8994
29.9672
30.0342
30.1004
30.1659
30.2305
30.2944
30.3574
30.4197
30.4811
30.5418
30.6016
30.6606
30.7188
30.7762
30.8328
30.8886
30.9435
30.9976
31.0509
31.1034
31.155
31.2059
31.2559
31.305
31.3533
31.4008
31.4475
31.4933
31.5383
31.5825
31.6258
31.6683
31.7099
31.7507
31.7906
31.8297
31.868
31.9054
31.942
31.9777
32.0126
32.0467
32.0799
32.1122
32.1437
32.1743
32.2041
32.2331
32.2612
32.2885
32.3149
32.3404
32.3651
32.389
32.412
32.4341
32.4554
32.4759
32.4955
32.5142
32.5321
32.5492
32.5654
32.5807
32.5952
32.6088
32.6216
32.6336
32.6446
32.6549
32.6642
32.6728
32.6804
32.6873
32.6932
32.6983
32.7026
32.706
32.7086
32.7103
32.7111
31.6667
31.6525
31.6241
31.5824
31.5276
31.4608
31.3827
31.2942
31.1959
31.0888
30.9733
30.8503
30.7201
30.5835
30.4408
30.2924
30.1389
29.9805
29.8176
29.6506
29.4798
29.3054
29.1277
28.9471
28.7638
28.578
28.3901
28.2002
28.0086
27.8155
27.6212
27.4259
27.2298
27.0331
26.836
26.6388
26.4416
26.2446
26.048
25.852
25.6568
25.4625
25.2692
25.0773
24.8867
24.6977
24.5104
24.3249
24.1414
23.9599
23.7807
23.6039
23.4295
23.2576
23.0885
22.922
22.7585
22.5978
22.4402
22.2857
22.1344
21.9864
21.8416
21.7003
21.5623
21.4279
21.297
21.1697
21.046
20.926
20.8097
20.6971
20.5883
20.4833
20.382
20.2846
20.1909
20.1011
20.0152
19.933
19.8547
19.7803
19.7096
19.6428
19.5797
19.5205
19.465
19.4132
19.3652
19.3208
19.2801
19.2431
19.2097
19.1798
19.1535
19.1307
19.1113
19.0954
19.0828
19.0736
19.0677
19.0651
19.0656
19.0693
19.0761
19.086
19.0989
19.1147
19.1334
19.155
19.1794
19.2066
19.2365
19.2689
19.304
19.3416
19.3817
19.4242
19.4691
19.5163
19.5658
19.6175
19.6713
19.7272
19.7851
19.8451
19.9069
19.9707
20.0363
20.1036
20.1727
20.2434
20.3157
20.3897
20.4651
20.542
20.6203
20.6999
20.7809
20.8631
20.9466
21.0312
21.117
21.2038
21.2917
21.3806
21.4704
21.5611
21.6527
21.7451
21.8383
21.9322
22.0268
22.122
22.2179
22.3144
22.4114
22.5089
22.6069
22.7054
22.8042
22.9034
23.0029
23.1028
23.2029
23.3033
23.4038
23.5046
23.6055
23.7065
23.8076
23.9088
24.01
24.1113
24.2125
24.3137
24.4149
24.5159
24.6169
24.7177
24.8184
24.9189
25.0193
25.1194
25.2192
25.3189
25.4182
25.5173
25.616
25.7145
25.8126
25.9103
26.0076
26.1046
26.2012
26.2973
26.393
26.4883
26.583
26.6774
26.7712
26.8645
26.9573
27.0496
27.1413
27.2325
27.3231
27.4132
27.5027
27.5915
27.6798
27.7675
27.8546
27.941
28.0268
28.1119
28.1964
28.2802
28.3634
28.4459
28.5277
28.6088
28.6892
28.769
28.848
28.9263
29.0038
29.0807
29.1568
29.2322
29.3068
29.3807
29.4539
29.5263
29.5979
29.6688
29.7389
29.8082
29.8767
29.9445
30.0115
30.0777
30.1431
30.2078
30.2716
30.3346
30.3968
30.4583
30.5189
30.5787
30.6377
30.6959
30.7533
30.8098
30.8656
30.9205
30.9746
31.0279
31.0804
31.132
31.1828
31.2328
31.2819
31.3302
31.3777
31.4243
31.4701
31.5151
31.5592
31.6025
31.645
31.6866
31.7274
31.7673
31.8064
31.8447
31.8821
31.9186
31.9543
31.9892
32.0232
32.0564
32.0888
32.1202
32.1509
32.1807
32.2096
32.2377
32.2649
32.2913
32.3169
32.3416
32.3654
32.3884
32.4105
32.4318
32.4523
32.4719
32.4906
32.5085
32.5255
32.5417
32.5571
32.5715
32.5852
32.5979
32.6099
32.6209
32.6312
32.6405
32.6491
32.6567
32.6635
32.6695
32.6746
32.6789
32.6823
32.6849
32.6866
32.6874
31.6043
31.5902
31.562
31.5204
31.4658
31.3992
31.3211
31.2326
31.1342
31.0268
30.9111
30.7877
30.6572
30.5201
30.377
30.2282
30.0743
29.9156
29.7524
29.585
29.4139
29.2393
29.0615
28.8807
28.6973
28.5115
28.3234
28.1335
27.9419
27.7489
27.5546
27.3593
27.1633
26.9667
26.7698
26.5727
26.3756
26.1787
25.9823
25.7865
25.5914
25.3973
25.2043
25.0125
24.8221
24.6333
24.4462
24.261
24.0777
23.8965
23.7176
23.541
23.3668
23.1952
23.0263
22.8602
22.6969
22.5365
22.3792
22.225
22.0739
21.9261
21.7817
21.6406
21.503
21.3688
21.2382
21.1112
20.9879
20.8682
20.7521
20.6399
20.5313
20.4266
20.3256
20.2285
20.1352
20.0457
19.96
19.8782
19.8002
19.726
19.6557
19.5891
19.5264
19.4674
19.4122
19.3608
19.313
19.269
19.2286
19.1918
19.1587
19.1291
19.1031
19.0806
19.0615
19.0458
19.0336
19.0246
19.019
19.0166
19.0174
19.0214
19.0285
19.0386
19.0517
19.0678
19.0868
19.1087
19.1333
19.1607
19.1908
19.2235
19.2589
19.2967
19.337
19.3798
19.4249
19.4723
19.5219
19.5738
19.6278
19.6839
19.7421
19.8022
19.8643
19.9282
19.9939
20.0615
20.1307
20.2016
20.2741
20.3482
20.4237
20.5008
20.5792
20.659
20.7401
20.8225
20.9061
20.9909
21.0767
21.1637
21.2517
21.3407
21.4306
21.5214
21.6131
21.7056
21.7988
21.8928
21.9875
22.0829
22.1789
22.2754
22.3725
22.4701
22.5681
22.6666
22.7655
22.8648
22.9644
23.0643
23.1644
23.2648
23.3654
23.4662
23.5671
23.6682
23.7693
23.8706
23.9718
24.0731
24.1743
24.2756
24.3767
24.4778
24.5788
24.6796
24.7803
24.8808
24.9811
25.0812
25.1811
25.2807
25.3801
25.4791
25.5779
25.6763
25.7744
25.8721
25.9694
26.0664
26.1629
26.259
26.3547
26.4499
26.5447
26.639
26.7328
26.826
26.9188
27.0111
27.1028
27.1939
27.2845
27.3745
27.464
27.5528
27.6411
27.7287
27.8157
27.9021
27.9878
28.0729
28.1574
28.2412
28.3243
28.4067
28.4885
28.5696
28.6499
28.7296
28.8086
28.8868
28.9644
29.0412
29.1172
29.1926
29.2672
29.341
29.4141
29.4865
29.558
29.6289
29.6989
29.7682
29.8367
29.9044
29.9714
30.0375
30.1029
30.1675
30.2313
30.2942
30.3564
30.4178
30.4784
30.5381
30.5971
30.6552
30.7126
30.7691
30.8248
30.8797
30.9337
30.987
31.0394
31.091
31.1417
31.1917
31.2408
31.289
31.3365
31.3831
31.4288
31.4738
31.5179
31.5611
31.6035
31.6451
31.6859
31.7258
31.7648
31.803
31.8404
31.8769
31.9126
31.9475
31.9815
32.0146
32.0469
32.0784
32.109
32.1387
32.1677
32.1957
32.2229
32.2493
32.2748
32.2995
32.3233
32.3463
32.3684
32.3897
32.4101
32.4297
32.4484
32.4663
32.4833
32.4995
32.5148
32.5292
32.5429
32.5556
32.5675
32.5786
32.5888
32.5982
32.6067
32.6144
32.6212
32.6271
32.6322
32.6365
32.6399
32.6425
32.6442
32.645
31.5435
31.5297
31.5019
31.461
31.4073
31.3415
31.2642
31.1764
31.0786
30.9718
30.8564
30.7332
30.6028
30.4657
30.3224
30.1735
30.0194
29.8604
29.697
29.5294
29.358
29.1832
29.0051
28.8241
28.6405
28.4545
28.2663
28.0763
27.8846
27.6914
27.4971
27.3018
27.1057
26.9091
26.7121
26.5151
26.318
26.1212
25.9248
25.7291
25.5341
25.34
25.1471
24.9554
24.7652
24.5765
24.3895
24.2044
24.0213
23.8403
23.6615
23.4851
23.3111
23.1397
22.9709
22.805
22.6419
22.4817
22.3246
22.1706
22.0198
21.8722
21.728
21.5872
21.4498
21.3159
21.1855
21.0588
20.9357
20.8162
20.7005
20.5885
20.4802
20.3758
20.2751
20.1782
20.0852
19.996
19.9106
19.8291
19.7514
19.6775
19.6075
19.5412
19.4788
19.4201
19.3652
19.3141
19.2666
19.2229
19.1828
19.1464
19.1136
19.0843
19.0586
19.0364
19.0176
19.0023
18.9903
18.9817
18.9764
18.9743
18.9754
18.9797
18.9871
18.9975
19.011
19.0274
19.0467
19.0688
19.0938
19.1215
19.1518
19.1849
19.2205
19.2586
19.2992
19.3422
19.3876
19.4353
19.4852
19.5374
19.5917
19.648
19.7064
19.7668
19.8291
19.8933
19.9593
20.0271
20.0965
20.1677
20.2404
20.3147
20.3905
20.4678
20.5464
20.6264
20.7078
20.7904
20.8742
20.9591
21.0452
21.1323
21.2205
21.3097
21.3998
21.4908
21.5826
21.6753
21.7687
21.8629
21.9578
22.0533
22.1494
22.2461
22.3433
22.441
22.5392
22.6379
22.7369
22.8363
22.936
23.036
23.1363
23.2368
23.3375
23.4384
23.5394
23.6406
23.7418
23.8431
23.9445
24.0459
24.1472
24.2485
24.3497
24.4509
24.5519
24.6529
24.7536
24.8542
24.9546
25.0547
25.1547
25.2544
25.3538
25.4529
25.5517
25.6501
25.7483
25.846
25.9434
26.0404
26.137
26.2331
26.3288
26.4241
26.5189
26.6132
26.707
26.8003
26.8931
26.9854
27.0771
27.1683
27.2589
27.3489
27.4384
27.5272
27.6155
27.7031
27.7902
27.8765
27.9623
28.0474
28.1319
28.2157
28.2988
28.3812
28.463
28.5441
28.6244
28.7041
28.7831
28.8613
28.9388
29.0156
29.0917
29.167
29.2416
29.3155
29.3885
29.4609
29.5325
29.6033
29.6733
29.7426
29.8111
29.8788
29.9457
30.0119
30.0772
30.1418
30.2055
30.2685
30.3307
30.392
30.4526
30.5124
30.5713
30.6294
30.6867
30.7433
30.7989
30.8538
30.9078
30.9611
31.0135
31.065
31.1158
31.1657
31.2148
31.263
31.3104
31.357
31.4028
31.4477
31.4918
31.535
31.5774
31.619
31.6597
31.6996
31.7386
31.7768
31.8142
31.8507
31.8864
31.9212
31.9552
31.9883
32.0206
32.0521
32.0827
32.1124
32.1413
32.1694
32.1966
32.2229
32.2484
32.2731
32.2969
32.3199
32.342
32.3632
32.3836
32.4032
32.4219
32.4398
32.4568
32.473
32.4883
32.5027
32.5163
32.5291
32.541
32.5521
32.5623
32.5716
32.5802
32.5878
32.5946
32.6006
32.6057
32.6099
32.6133
32.6159
32.6176
32.6184
31.4719
31.4582
31.4308
31.3903
31.337
31.2717
31.1948
31.1074
31.0098
30.9031
30.7877
30.6645
30.5339
30.3966
30.2531
30.1039
29.9494
29.7901
29.6263
29.4584
29.2868
29.1117
28.9334
28.7522
28.5684
28.3822
28.1939
28.0038
27.812
27.6188
27.4245
27.2292
27.0331
26.8365
26.6396
26.4426
26.2457
26.049
25.8527
25.6571
25.4622
25.2683
25.0756
24.8841
24.694
24.5055
24.3188
24.1339
23.951
23.7702
23.5916
23.4154
23.2417
23.0705
22.902
22.7363
22.5735
22.4136
22.2568
22.1031
21.9526
21.8053
21.6614
21.5209
21.3838
21.2502
21.1202
20.9937
20.8709
20.7518
20.6364
20.5247
20.4168
20.3127
20.2124
20.1159
20.0232
19.9343
19.8493
19.7681
19.6908
19.6173
19.5476
19.4817
19.4196
19.3613
19.3068
19.256
19.2089
19.1655
19.1258
19.0898
19.0573
19.0284
19.003
18.9812
18.9628
18.9478
18.9362
18.9279
18.923
18.9212
18.9227
18.9273
18.9351
18.9458
18.9596
18.9763
18.996
19.0185
19.0437
19.0718
19.1025
19.1358
19.1717
19.2102
19.2511
19.2944
19.3401
19.3881
19.4383
19.4907
19.5453
19.6019
19.6606
19.7213
19.7839
19.8483
19.9146
19.9826
20.0523
20.1237
20.1967
20.2712
20.3472
20.4247
20.5036
20.5838
20.6654
20.7482
20.8322
20.9173
21.0036
21.091
21.1793
21.2687
21.359
21.4501
21.5422
21.635
21.7286
21.8229
21.9179
22.0136
22.1098
22.2067
22.304
22.4019
22.5002
22.599
22.6981
22.7976
22.8975
22.9976
23.098
23.1986
23.2994
23.4004
23.5015
23.6028
23.7041
23.8055
23.9069
24.0083
24.1097
24.2111
24.3124
24.4136
24.5147
24.6157
24.7165
24.8172
24.9176
25.0178
25.1178
25.2175
25.3169
25.4161
25.5149
25.6134
25.7115
25.8093
25.9067
26.0037
26.1003
26.1965
26.2922
26.3875
26.4823
26.5766
26.6704
26.7638
26.8566
26.9488
27.0406
27.1317
27.2223
27.3124
27.4018
27.4907
27.5789
27.6665
27.7536
27.8399
27.9257
28.0108
28.0952
28.179
28.2621
28.3445
28.4263
28.5073
28.5877
28.6673
28.7463
28.8245
28.902
28.9788
29.0548
29.1301
29.2047
29.2785
29.3515
29.4238
29.4954
29.5662
29.6362
29.7054
29.7739
29.8416
29.9085
29.9746
30.0399
30.1044
30.1682
30.2311
30.2932
30.3546
30.4151
30.4748
30.5337
30.5918
30.6491
30.7056
30.7612
30.8161
30.8701
30.9233
30.9756
31.0272
31.0779
31.1278
31.1768
31.2251
31.2724
31.319
31.3647
31.4096
31.4537
31.4969
31.5393
31.5808
31.6215
31.6613
31.7004
31.7385
31.7759
31.8124
31.848
31.8828
31.9168
31.9499
31.9821
32.0136
32.0441
32.0739
32.1027
32.1308
32.158
32.1843
32.2098
32.2344
32.2582
32.2812
32.3033
32.3245
32.3449
32.3645
32.3832
32.401
32.418
32.4342
32.4495
32.4639
32.4775
32.4903
32.5022
32.5132
32.5234
32.5328
32.5413
32.5489
32.5557
32.5617
32.5668
32.571
32.5744
32.577
32.5787
32.5795
31.4003
31.3869
31.3599
31.3201
31.2675
31.203
31.127
31.0403
30.9434
30.8372
30.7223
30.5993
30.4689
30.3317
30.1881
30.0388
29.8842
29.7246
29.5606
29.3925
29.2206
29.0452
28.8667
28.6852
28.5012
28.3148
28.1264
27.9361
27.7441
27.5508
27.3564
27.161
26.9649
26.7683
26.5714
26.3744
26.1774
25.9808
25.7846
25.589
25.3942
25.2004
25.0077
24.8163
24.6264
24.4381
24.2514
24.0667
23.8839
23.7033
23.5249
23.3489
23.1754
23.0044
22.8362
22.6707
22.5081
22.3484
22.1919
22.0384
21.8881
21.7411
21.5975
21.4572
21.3204
21.1871
21.0574
20.9313
20.8088
20.69
20.5749
20.4635
20.356
20.2522
20.1522
20.056
19.9637
19.8752
19.7905
19.7097
19.6327
19.5595
19.4902
19.4247
19.363
19.3051
19.2509
19.2005
19.1538
19.1108
19.0715
19.0358
19.0037
18.9752
18.9503
18.9288
18.9108
18.8962
18.885
18.8771
18.8725
18.8712
18.8731
18.8781
18.8862
18.8974
18.9115
18.9286
18.9487
18.9715
18.9972
19.0256
19.0566
19.0903
19.1266
19.1654
19.2067
19.2504
19.2964
19.3448
19.3954
19.4481
19.503
19.56
19.619
19.68
19.7429
19.8077
19.8743
19.9426
20.0127
20.0843
20.1576
20.2325
20.3088
20.3866
20.4657
20.5463
20.6281
20.7111
20.7954
20.8808
20.9674
21.055
21.1436
21.2332
21.3237
21.4151
21.5074
21.6004
21.6942
21.7888
21.884
21.9799
22.0763
22.1734
22.2709
22.369
22.4675
22.5664
22.6658
22.7654
22.8654
22.9657
23.0663
23.167
23.268
23.3692
23.4704
23.5718
23.6733
23.7748
23.8764
23.9779
24.0795
24.181
24.2824
24.3837
24.4849
24.586
24.6869
24.7876
24.8882
24.9885
25.0885
25.1884
25.2879
25.3871
25.486
25.5846
25.6828
25.7807
25.8781
25.9752
26.0718
26.1681
26.2639
26.3592
26.454
26.5484
26.6423
26.7357
26.8285
26.9208
27.0126
27.1038
27.1944
27.2845
27.374
27.4628
27.5511
27.6388
27.7258
27.8122
27.898
27.9831
28.0676
28.1514
28.2345
28.3169
28.3987
28.4797
28.5601
28.6398
28.7187
28.7969
28.8744
28.9512
29.0273
29.1026
29.1771
29.251
29.324
29.3963
29.4679
29.5386
29.6087
29.6779
29.7463
29.814
29.8809
29.947
30.0123
30.0769
30.1406
30.2035
30.2657
30.327
30.3875
30.4472
30.5061
30.5642
30.6215
30.6779
30.7336
30.7884
30.8424
30.8956
30.9479
30.9995
31.0502
31.1
31.1491
31.1973
31.2447
31.2912
31.3369
31.3818
31.4258
31.469
31.5114
31.5529
31.5936
31.6335
31.6725
31.7106
31.7479
31.7844
31.82
31.8548
31.8888
31.9219
31.9541
31.9855
32.0161
32.0458
32.0747
32.1027
32.1299
32.1562
32.1817
32.2063
32.2301
32.2531
32.2751
32.2964
32.3168
32.3363
32.355
32.3728
32.3898
32.406
32.4213
32.4357
32.4493
32.4621
32.474
32.485
32.4952
32.5045
32.513
32.5207
32.5275
32.5334
32.5385
32.5428
32.5462
32.5487
32.5504
32.5513
31.3196
31.3064
31.2798
31.2404
31.1885
31.1245
31.0491
30.9629
30.8665
30.7607
30.646
30.5232
30.3928
30.2555
30.1118
29.9623
29.8074
29.6476
29.4833
29.3149
29.1427
28.967
28.7882
28.6066
28.4223
28.2358
28.0471
27.8567
27.6646
27.4713
27.2767
27.0813
26.8852
26.6886
26.4917
26.2947
26.0978
25.9012
25.7051
25.5096
25.315
25.1213
24.9288
24.7375
24.5478
24.3596
24.1732
23.9886
23.8061
23.6257
23.4475
23.2717
23.0985
22.9278
22.7598
22.5946
22.4322
22.2729
22.1166
21.9634
21.8135
21.6668
21.5235
21.3835
21.2471
21.1141
20.9847
20.859
20.7368
20.6184
20.5037
20.3927
20.2855
20.1821
20.0825
19.9867
19.8948
19.8066
19.7224
19.642
19.5654
19.4927
19.4238
19.3587
19.2974
19.2399
19.1861
19.1362
19.0899
19.0473
19.0085
18.9732
18.9416
18.9135
18.8889
18.8679
18.8503
18.8362
18.8254
18.818
18.8138
18.8129
18.8152
18.8206
18.8292
18.8407
18.8553
18.8729
18.8933
18.9166
18.9426
18.9714
19.0029
19.037
19.0737
19.1129
19.1546
19.1986
19.2451
19.2938
19.3447
19.3979
19.4532
19.5105
19.5699
19.6312
19.6945
19.7596
19.8265
19.8952
19.9656
20.0376
20.1112
20.1863
20.263
20.3411
20.4205
20.5014
20.5835
20.6668
20.7514
20.8371
20.9239
21.0117
21.1006
21.1905
21.2812
21.3729
21.4654
21.5587
21.6527
21.7475
21.8429
21.939
22.0357
22.1329
22.2307
22.329
22.4277
22.5268
22.6263
22.7261
22.8263
22.9268