/*--------------------------------*- C++ -*----------------------------------*\
| =========                 |                                                 |
| \\      /  F ield         | OpenFOAM: The Open Source CFD Toolbox           |
|  \\    /   O peration     | Version:  2212                                  |
|   \\  /    A nd           | Website:  www.openfoam.com                      |
|    \\/     M anipulation  |                                                 |
\*---------------------------------------------------------------------------*/
FoamFile
{
    version     2.0;
    format      ascii;
    arch        "LSB;label=32;scalar=64";
    class       surfaceScalarField;
    location    "440";
    object      phi;
}
// * * * * * * * * * * * * * * * * * * * * * * * * * * * * * * * * * * * * * //

dimensions      [1 0 -1 0 0 0 0];

oriented        oriented;

internalField   nonuniform List<scalar> 
408640
(
-2179.67
2177.9
-4331.89
2151.88
-6429.91
2097.64
-8453.14
2022.83
-10389.2
1935.68
-12233.6
1843.96
-13988.2
1754.17
-15659.5
1670.83
-17256.4
1596.53
-18789
1532.16
-20266.8
1477.46
-21698.6
1431.41
-23091.5
1392.64
-24451.6
1359.72
-25783.2
1331.33
-27089.9
1306.3
-28373.9
1283.68
-29636.9
1262.73
-30880.1
1242.88
-32104.1
1223.72
-33309.4
1204.95
-34496
1186.36
-35664.2
1167.84
-36813.8
1149.31
-37944.8
1130.72
-39057.1
1112.06
-40150.8
1093.31
-41225.6
1074.5
-42281.5
1055.62
-43318.5
1036.69
-44336.5
1017.73
-45335.5
998.742
-46315.6
979.738
-47276.6
960.731
-48218.6
941.729
-49141.6
922.74
-50045.7
903.773
-50930.8
884.834
-51797.1
865.93
-52644.4
847.067
-53473
828.249
-54282.7
809.483
-55073.8
790.773
-55846.2
772.125
-56600
753.541
-57335.3
735.028
-58052.2
716.59
-58750.7
698.23
-59430.9
679.953
-60093
661.763
-60736.9
643.664
-61362.8
625.659
-61970.9
607.753
-62561.1
589.95
-63133.6
572.253
-63688.5
554.666
-64226
537.193
-64746.1
519.836
-65248.9
502.601
-65734.7
485.49
-66203.4
468.506
-66655.3
451.653
-67090.5
434.934
-67509.1
418.353
-67911.3
401.913
-68297.1
385.616
-68666.8
369.465
-69020.5
353.464
-69358.3
337.616
-69680.5
321.922
-69987.1
306.386
-70278.3
291.01
-70554.3
275.797
-70815.3
260.749
-71061.4
245.869
-71292.7
231.157
-71509.6
216.618
-71712
202.252
-71900.3
188.061
-72074.5
174.048
-72234.9
160.213
-72381.7
146.559
-72514.9
133.086
-72634.9
119.797
-72741.8
106.693
-72835.7
93.7737
-72916.9
81.0413
-72985.6
68.4966
-73041.9
56.1402
-73086
43.973
-73118.2
31.9956
-73138.6
20.2085
-73147.3
8.61203
-73144.7
-2.79338
-73130.8
-14.0076
-73105.9
-25.0304
-73070.2
-35.8618
-73023.8
-46.502
-72967
-56.951
-72899.9
-67.2091
-72822.7
-77.2767
-72735.7
-87.1542
-72639
-96.8421
-72532.7
-106.341
-72417.2
-115.652
-72292.5
-124.775
-72158.9
-133.712
-72016.5
-142.463
-71865.6
-151.029
-71706.3
-159.411
-71538.8
-167.611
-71363.2
-175.63
-71179.8
-183.469
-70988.8
-191.129
-70790.2
-198.612
-70584.4
-205.919
-70371.4
-213.051
-70151.5
-220.011
-69924.7
-226.8
-69691.3
-233.419
-69451.5
-239.871
-69205.4
-246.156
-68953.2
-252.278
-68695
-258.236
-68431
-264.035
-68161.4
-269.674
-67886.3
-275.157
-67605.8
-280.485
-67320.2
-285.661
-67029.5
-290.685
-66734
-295.561
-66433.7
-300.291
-66128.9
-304.875
-65819.6
-309.317
-65506
-313.619
-65188.2
-317.783
-64866.4
-321.81
-64540.7
-325.703
-64211.3
-329.465
-63878.2
-333.097
-63541.6
-336.601
-63201.6
-339.98
-62858.4
-343.236
-62512
-346.371
-62162.6
-349.386
-61810.3
-352.285
-61455.2
-355.07
-61097.5
-357.742
-60737.2
-360.304
-60374.4
-362.758
-60009.3
-365.106
-59641.9
-367.35
-59272.4
-369.492
-58900.8
-371.534
-58527.4
-373.479
-58152
-375.328
-57774.9
-377.084
-57396.1
-378.749
-57015.8
-380.324
-56634
-381.811
-56250.7
-383.213
-55866.2
-384.532
-55480.4
-385.769
-55093.4
-386.927
-54705.4
-388.007
-54316.3
-389.011
-53926.4
-389.941
-53535.6
-390.799
-53143.9
-391.587
-52751.6
-392.306
-52358.6
-392.958
-51965.1
-393.546
-51571
-394.071
-51176.4
-394.533
-50781.4
-394.937
-50386.1
-395.281
-49990.5
-395.57
-49594.7
-395.803
-49198.7
-395.984
-48802.6
-396.112
-48406.4
-396.19
-48010.1
-396.22
-47613.9
-396.202
-47217.7
-396.138
-46821.7
-396.03
-46425.8
-395.88
-46030.1
-395.687
-45634.6
-395.455
-45239.4
-395.184
-44844.5
-394.875
-44450
-394.53
-44055.8
-394.151
-43662.1
-393.737
-43268.8
-393.292
-42876
-392.815
-42483.7
-392.308
-42091.9
-391.772
-41700.7
-391.208
-41310.1
-390.618
-40920.1
-390.002
-40530.7
-389.362
-40142
-388.698
-39754
-388.012
-39366.7
-387.305
-38980.2
-386.577
-38594.3
-385.83
-38209.3
-385.064
-37825
-384.281
-37441.6
-383.481
-37058.9
-382.666
-36677.1
-381.835
-36296.2
-380.99
-35916.1
-380.133
-35536.9
-379.262
-35158.5
-378.38
-34781.1
-377.488
-34404.5
-376.585
-34028.9
-375.672
-33654.2
-374.752
-33280.4
-373.823
-32907.6
-372.887
-32535.7
-371.944
-32164.8
-370.995
-31794.8
-370.042
-31425.8
-369.083
-31057.7
-368.12
-30690.7
-367.154
-30324.5
-366.185
-29959.4
-365.214
-29595.3
-364.241
-29232.1
-363.267
-28869.9
-362.292
-28508.6
-361.317
-28148.4
-360.342
-27789.1
-359.368
-27430.8
-358.395
-27073.5
-357.424
-26717.2
-356.455
-26361.8
-355.489
-26007.4
-354.526
-25653.9
-353.566
-25301.5
-352.61
-24949.9
-351.658
-24599.3
-350.711
-24249.7
-349.769
-23901
-348.832
-23553.3
-347.901
-23206.4
-346.976
-22860.5
-346.058
-22515.5
-345.146
-22171.4
-344.241
-21828.2
-343.343
-21485.9
-342.453
-21144.5
-341.571
-20804
-340.698
-20464.3
-339.832
-20125.5
-338.976
-19787.6
-338.128
-19450.5
-337.29
-19114.2
-336.461
-18778.7
-335.642
-18444.1
-334.832
-18110.3
-334.033
-17777.2
-333.244
-17444.9
-332.466
-17113.4
-331.699
-16782.7
-330.942
-16452.7
-330.197
-16123.5
-329.463
-15794.9
-328.741
-15467.1
-328.03
-15140
-327.332
-14813.6
-326.645
-14487.8
-325.97
-14162.8
-325.308
-13838.3
-324.658
-13514.5
-324.021
-13191.4
-323.397
-12868.8
-322.785
-12546.9
-322.186
-12225.5
-321.601
-11904.7
-321.029
-11584.5
-320.47
-11264.9
-319.925
-10945.7
-319.393
-10627.1
-318.875
-10309
-318.371
-9991.36
-317.881
-9674.21
-317.404
-9357.54
-316.942
-9041.31
-316.494
-8725.52
-316.06
-8410.14
-315.64
-8095.18
-315.235
-7780.61
-314.844
-7466.42
-314.468
-7152.59
-314.106
-6839.11
-313.759
-6525.96
-313.426
-6213.13
-313.109
-5900.61
-312.806
-5588.37
-312.518
-5276.41
-312.245
-4964.71
-311.987
-4653.26
-311.744
-4342.03
-311.517
-4031.01
-311.304
-3720.2
-311.107
-3409.56
-310.926
-3099.09
-310.76
-2788.77
-310.611
-2478.59
-310.477
-2168.52
-310.36
-1858.56
-310.259
-1548.68
-310.174
-1238.87
-310.105
-929.111
-310.053
-619.389
-310.017
-309.69
-309.995
-309.986
-2154.99
4332.56
-4285.19
4281.73
-6365.76
4177.82
-8377.42
4034.09
-10308.1
3865.96
-12152.6
3688.07
-13911.7
3512.85
-15590.4
3349.11
-17196.4
3202.09
-18738.4
3073.82
-20225.4
2964.03
-21665.3
2870.99
-23065.3
2792.24
-24431
2725.1
-25767
2667.05
-27076.9
2615.84
-28363.1
2569.61
-29627.6
2526.89
-30871.5
2486.53
-32095.8
2447.69
-33300.9
2409.75
-34487.1
2372.29
-35654.6
2335.03
-36803.4
2297.81
-37933.5
2260.51
-39044.8
2223.1
-40137.4
2185.57
-41211.1
2147.9
-42265.9
2110.12
-43301.7
2072.26
-44318.6
2034.32
-45316.5
1996.34
-46295.4
1958.33
-47255.3
1920.32
-48196.2
1882.32
-49118.1
1844.36
-50021
1806.43
-50905.1
1768.56
-51770.2
1730.77
-52616.5
1693.05
-53443.9
1655.43
-54252.6
1617.91
-55042.6
1580.5
-55814
1543.22
-56566.8
1506.06
-57301.1
1469.05
-58017
1432.19
-58714.5
1395.48
-59393.8
1358.94
-60054.9
1322.57
-60697.9
1286.39
-61322.9
1250.39
-61930
1214.59
-62519.3
1179
-63090.9
1143.62
-63645
1108.46
-64181.6
1073.53
-64700.8
1038.83
-65202.9
1004.37
-65687.8
970.165
-66155.8
936.212
-66606.9
902.521
-67041.3
869.098
-67459.1
835.95
-67860.5
803.083
-68245.6
770.503
-68614.6
738.216
-68967.6
706.229
-69304.8
674.546
-69626.3
643.173
-69932.2
612.115
-70222.8
581.378
-70498.2
550.966
-70758.5
520.885
-71004
491.137
-71234.8
461.729
-71451
432.664
-71652.9
403.946
-71840.6
375.579
-72014.4
347.567
-72174.2
319.912
-72320.5
292.617
-72453.3
265.687
-72572.8
239.123
-72679.2
212.928
-72772.7
187.104
-72853.5
161.653
-72921.7
136.577
-72977.6
111.879
-73021.4
87.5581
-73053.1
63.617
-73073.1
40.0565
-73081.6
16.8773
-73078.6
-5.91989
-73064.4
-28.3347
-73039.2
-50.3668
-73003.2
-72.0163
-72956.5
-93.2833
-72899.4
-114.168
-72832.1
-134.671
-72754.7
-154.793
-72667.4
-174.535
-72570.5
-193.898
-72464.1
-212.883
-72348.3
-231.492
-72223.5
-249.726
-72089.7
-267.587
-71947.2
-285.076
-71796.1
-302.196
-71636.7
-318.949
-71469
-335.337
-71293.4
-351.363
-71109.9
-367.029
-70918.8
-382.337
-70720.1
-397.291
-70514.2
-411.894
-70301.2
-426.148
-70081.2
-440.056
-69854.5
-453.623
-69621.1
-466.851
-69381.3
-479.743
-69135.2
-492.303
-68883
-504.535
-68624.8
-516.443
-68360.9
-528.029
-68091.3
-539.298
-67816.2
-550.254
-67535.8
-560.901
-67250.3
-571.242
-66959.7
-581.282
-66664.3
-591.025
-66364.1
-600.474
-66059.4
-609.634
-65750.2
-618.51
-65436.7
-627.105
-65119.1
-635.423
-64797.5
-643.47
-64471.9
-651.248
-64142.6
-658.763
-63809.7
-666.019
-63473.3
-673.02
-63133.5
-679.77
-62790.5
-686.274
-62444.3
-692.536
-62095.1
-698.561
-61743.1
-704.352
-61388.2
-709.914
-61030.7
-715.252
-60670.6
-720.369
-60308.1
-725.27
-59943.2
-729.96
-59576.1
-734.441
-59206.9
-738.72
-58835.6
-742.799
-58462.4
-746.683
-58087.3
-750.376
-57710.5
-753.882
-57332
-757.206
-56952
-760.351
-56570.4
-763.321
-56187.5
-766.12
-55803.3
-768.753
-55417.8
-771.222
-55031.2
-773.533
-54643.4
-775.688
-54254.7
-777.692
-53865.1
-779.548
-53474.6
-781.261
-53083.4
-782.832
-52691.4
-784.267
-52298.7
-785.568
-51905.5
-786.74
-51511.8
-787.786
-51117.6
-788.708
-50723
-789.511
-50328
-790.198
-49932.8
-790.772
-49537.3
-791.236
-49141.7
-791.593
-48746
-791.847
-48350.1
-792.001
-47954.3
-792.058
-47558.4
-792.02
-47162.7
-791.89
-46767
-791.672
-46371.5
-791.369
-45976.2
-790.982
-45581.1
-790.516
-45186.3
-789.971
-44791.8
-789.352
-44397.7
-788.661
-44003.9
-787.9
-43610.6
-787.072
-43217.7
-786.179
-42825.3
-785.223
-42433.4
-784.208
-42042
-783.135
-41651.2
-782.007
-41261
-780.825
-40871.4
-779.593
-40482.5
-778.311
-40094.2
-776.983
-39706.6
-775.61
-39319.7
-774.195
-38933.6
-772.738
-38548.2
-771.243
-38163.5
-769.711
-37779.7
-768.144
-37396.7
-766.544
-37014.4
-764.912
-36633.1
-763.25
-36252.5
-761.561
-35872.8
-759.845
-35494
-758.104
-35116.1
-756.34
-34739.1
-754.554
-34363
-752.748
-33987.8
-750.923
-33613.5
-749.081
-33240.1
-747.224
-32867.7
-745.351
-32496.3
-743.466
-32125.7
-741.569
-31756.2
-739.661
-31387.6
-737.744
-31020
-735.819
-30653.3
-733.887
-30287.6
-731.949
-29922.9
-730.007
-29559.2
-728.061
-29196.4
-726.113
-28834.6
-724.163
-28473.8
-722.213
-28114
-720.264
-27755.2
-718.316
-27397.3
-716.371
-27040.4
-714.429
-26684.5
-712.492
-26329.5
-710.559
-25975.5
-708.633
-25622.5
-706.714
-25270.4
-704.803
-24919.3
-702.9
-24569.1
-701.006
-24219.9
-699.122
-23871.6
-697.249
-23524.3
-695.388
-23177.9
-693.538
-22832.4
-691.702
-22487.8
-689.878
-22144.1
-688.069
-21801.3
-686.275
-21459.4
-684.495
-21118.4
-682.732
-20778.3
-680.985
-20439.1
-679.255
-20100.7
-677.542
-19763.1
-675.847
-19426.4
-674.171
-19090.6
-672.514
-18755.5
-670.876
-18421.3
-669.258
-18087.8
-667.66
-17755.2
-666.083
-17423.3
-664.527
-17092.2
-662.993
-16761.9
-661.481
-16432.3
-659.991
-16103.5
-658.524
-15775.3
-657.08
-15447.9
-655.659
-15121.2
-654.262
-14795.2
-652.889
-14469.8
-651.54
-14145.2
-650.216
-13821.1
-648.917
-13497.7
-647.643
-13175
-646.395
-12852.8
-645.172
-12531.3
-643.976
-12210.3
-642.805
-11889.9
-641.661
-11570.1
-640.544
-11250.8
-639.454
-10932.1
-638.391
-10613.9
-637.356
-10296.1
-636.348
-9978.91
-635.367
-9662.16
-634.415
-9345.88
-633.491
-9030.04
-632.595
-8714.64
-631.727
-8399.66
-630.888
-8085.09
-630.078
-7770.91
-629.296
-7457.11
-628.544
-7143.67
-627.821
-6830.58
-627.127
-6517.82
-626.462
-6205.38
-625.827
-5893.25
-625.222
-5581.4
-624.646
-5269.83
-624.1
-4958.52
-623.585
-4647.45
-623.099
-4336.61
-622.644
-4025.98
-622.22
-3715.55
-621.826
-3405.3
-621.464
-3095.22
-621.133
-2785.29
-620.833
-2475.5
-620.566
-2165.82
-620.331
-1856.24
-620.129
-1546.75
-619.96
-1237.33
-619.823
-927.955
-619.718
-618.621
-619.645
-309.308
-619.603
-619.589
-2128.89
6461.09
-4234.95
6387.42
-6296.01
6238.5
-8294.48
6032.15
-10218.7
5789.75
-12063
5531.92
-13826.9
5276.36
-15514.1
5035.88
-17130.7
4818.32
-18684.3
4627.02
-20182.7
4462
-21633.2
4321.11
-23042.3
4201.07
-24415.8
4098.22
-25758.1
4008.99
-27072.7
3930.17
-28362.5
3859.08
-29629.4
3793.51
-30875
3731.76
-32100.1
3672.52
-33305.5
3614.86
-34491.6
3558.1
-35658.7
3501.79
-36806.8
3445.64
-37936.1
3389.48
-39046.5
3333.21
-40138
3276.78
-41210.6
3220.21
-42264.3
3163.49
-43299
3106.65
-44314.7
3049.73
-45311.4
2992.75
-46289.1
2935.74
-47247.8
2878.72
-48187.5
2821.73
-49108.2
2764.79
-50010
2707.91
-50892.8
2651.13
-51756.8
2594.44
-52601.9
2537.89
-53428.3
2481.47
-54235.8
2425.21
-55024.7
2369.11
-55795
2313.21
-56546.7
2257.49
-57280
2201.99
-57994.8
2146.72
-58691.3
2091.68
-59369.5
2036.89
-60029.5
1982.36
-60671.5
1928.1
-61295.5
1874.13
-61901.6
1820.45
-62490
1767.08
-63060.7
1714.03
-63613.8
1661.31
-64149.4
1608.93
-64667.8
1556.9
-65168.9
1505.24
-65652.9
1453.95
-66120
1403.04
-66570.2
1352.52
-67003.8
1302.4
-67420.8
1252.7
-67821.4
1203.42
-68205.7
1154.57
-68573.9
1106.16
-68926.1
1058.2
-69262.4
1010.7
-69583.2
963.658
-69888.4
917.092
-70178.2
871.006
-70452.9
825.409
-70712.5
780.306
-70957.3
735.706
-71187.4
691.614
-71402.9
648.037
-71604.2
604.98
-71791.2
562.45
-71964.3
520.451
-72123.6
478.989
-72269.2
438.068
-72401.4
397.692
-72520.3
357.866
-72626.2
318.594
-72719.1
279.878
-72799.4
241.722
-72867.1
204.129
-72922.5
167.101
-72965.7
130.64
-72997
94.749
-73016.5
59.4283
-73024.5
24.6796
-73021
-9.49614
-73006.4
-43.0984
-72980.8
-76.1267
-72944.4
-108.581
-72897.3
-140.462
-72839.8
-171.769
-72772.1
-202.504
-72694.4
-232.668
-72606.8
-262.261
-72509.5
-291.286
-72402.7
-319.745
-72286.7
-347.639
-72161.5
-374.97
-72027.5
-401.742
-71884.7
-427.958
-71733.4
-453.619
-71573.7
-478.73
-71405.8
-503.293
-71229.9
-527.313
-71046.3
-550.794
-70854.9
-573.738
-70656.1
-596.151
-70450.1
-618.038
-70236.9
-639.401
-70016.8
-660.247
-69789.9
-680.579
-69556.4
-700.403
-69316.4
-719.725
-69070.2
-738.549
-68817.9
-756.88
-68559.7
-774.725
-68295.7
-792.088
-68026.1
-808.976
-67751
-825.394
-67470.5
-841.349
-67185
-856.845
-66894.4
-871.89
-66598.9
-886.489
-66298.8
-900.648
-65994.1
-914.374
-65684.9
-927.673
-65371.5
-940.551
-65053.9
-953.015
-64732.3
-965.071
-64406.9
-976.725
-64077.7
-987.984
-63744.8
-998.855
-63408.5
-1009.34
-63068.8
-1019.46
-62725.9
-1029.2
-62379.9
-1038.58
-62030.8
-1047.61
-61678.9
-1056.28
-61324.2
-1064.61
-60966.8
-1072.61
-60606.9
-1080.27
-60244.5
-1087.61
-59879.9
-1094.64
-59512.9
-1101.35
-59143.9
-1107.76
-58772.8
-1113.86
-58399.8
-1119.68
-58024.9
-1125.21
-57648.3
-1130.46
-57270.1
-1135.44
-56890.3
-1140.15
-56509
-1144.59
-56126.3
-1148.78
-55742.3
-1152.72
-55357.1
-1156.42
-54970.7
-1159.88
-54583.3
-1163.1
-54194.8
-1166.1
-53805.5
-1168.88
-53415.3
-1171.44
-53024.3
-1173.79
-52632.6
-1175.93
-52240.3
-1177.88
-51847.3
-1179.63
-51453.9
-1181.19
-51060
-1182.57
-50665.7
-1183.77
-50271.1
-1184.79
-49876.2
-1185.65
-49481.1
-1186.34
-49085.8
-1186.87
-48690.4
-1187.25
-48294.9
-1187.47
-47899.4
-1187.55
-47503.9
-1187.49
-47108.4
-1187.29
-46713.1
-1186.96
-46318
-1186.5
-45923
-1185.92
-45528.3
-1185.21
-45133.9
-1184.39
-44739.8
-1183.46
-44346
-1182.42
-43952.6
-1181.28
-43559.6
-1180.03
-43167.1
-1178.69
-42775.1
-1177.25
-42383.6
-1175.73
-41992.6
-1174.12
-41602.2
-1172.42
-41212.3
-1170.65
-40823.1
-1168.79
-40434.6
-1166.87
-40046.7
-1164.88
-39659.5
-1162.82
-39273
-1160.69
-38887.3
-1158.5
-38502.3
-1156.26
-38118
-1153.96
-37734.6
-1151.61
-37352
-1149.21
-36970.1
-1146.76
-36589.2
-1144.26
-36209
-1141.73
-35829.7
-1139.15
-35451.3
-1136.54
-35073.8
-1133.89
-34697.2
-1131.21
-34321.5
-1128.5
-33946.7
-1125.77
-33572.8
-1123
-33199.9
-1120.22
-32827.9
-1117.41
-32456.8
-1114.58
-32086.7
-1111.73
-31717.6
-1108.87
-31349.4
-1105.99
-30982.2
-1103.11
-30616
-1100.21
-30250.7
-1097.3
-29886.4
-1094.39
-29523.1
-1091.47
-29160.7
-1088.55
-28799.3
-1085.62
-28438.9
-1082.7
-28079.5
-1079.77
-27721.1
-1076.85
-27363.6
-1073.93
-27007.1
-1071.02
-26651.6
-1068.12
-26297.1
-1065.22
-25943.5
-1062.33
-25590.9
-1059.45
-25239.2
-1056.58
-24888.5
-1053.73
-24538.8
-1050.89
-24190
-1048.06
-23842.1
-1045.25
-23495.2
-1042.46
-23149.2
-1039.69
-22804.1
-1036.93
-22459.9
-1034.2
-22116.6
-1031.49
-21774.3
-1028.8
-21432.8
-1026.13
-21092.2
-1023.48
-20752.5
-1020.86
-20413.6
-1018.27
-20075.7
-1015.7
-19738.5
-1013.16
-19402.2
-1010.64
-19066.8
-1008.16
-18732.1
-1005.7
-18398.3
-1003.28
-18065.3
-1000.88
-17733
-998.517
-17401.6
-996.184
-17070.9
-993.883
-16740.9
-991.615
-16411.8
-989.381
-16083.3
-987.181
-15755.6
-985.015
-15428.6
-982.885
-15102.3
-980.79
-14776.7
-978.731
-14451.7
-976.708
-14127.4
-974.723
-13803.8
-972.775
-13480.8
-970.865
-13158.5
-968.993
-12836.7
-967.16
-12515.6
-965.366
-12195
-963.611
-11875
-961.896
-11555.6
-960.221
-11236.7
-958.586
-10918.3
-956.992
-10600.5
-955.439
-10283.2
-953.928
-9966.36
-952.458
-9650
-951.03
-9334.11
-949.644
-9018.67
-948.3
-8703.67
-947
-8389.08
-945.741
-8074.9
-944.527
-7761.12
-943.355
-7447.71
-942.227
-7134.66
-941.142
-6821.97
-940.102
-6509.6
-939.105
-6197.56
-938.153
-5885.81
-937.245
-5574.36
-936.382
-5263.18
-935.564
-4952.26
-934.791
-4641.59
-934.063
-4331.14
-933.38
-4020.9
-932.744
-3710.86
-932.154
-3401.01
-931.61
-3091.32
-931.114
-2781.78
-930.665
-2472.37
-930.264
-2163.09
-929.912
-1853.9
-929.609
-1544.8
-929.355
-1235.77
-929.15
-926.786
-928.993
-617.841
-928.885
-308.917
-928.822
-928.801
-2095.16
8555.89
-4170.21
8462.08
-6206.19
8274.08
-8187.58
8013.12
-10103.3
7705.08
-11947.3
7375.42
-13717.6
7046.27
-15416.2
6734.01
-17047.3
6449
-18616.7
6196.05
-20130.9
5975.8
-21596.2
5786.08
-23018.7
5623.16
-24403.5
5482.68
-25755.1
5360.27
-27077.2
5251.94
-28372.6
5154.25
-29643.8
5064.34
-30892.3
4979.94
-32119.4
4899.31
-33325.9
4821.12
-34512.6
4744.44
-35679.7
4668.61
-36827.5
4593.18
-37956.2
4517.88
-39065.9
4442.55
-40156.5
4367.1
-41228.1
4291.52
-42280.7
4215.78
-43314.3
4139.93
-44328.8
4063.98
-45324.3
3987.98
-46300.8
3911.94
-47258.3
3835.92
-48196.8
3759.93
-49116.3
3684.01
-50016.9
3608.18
-50898.5
3532.47
-51761.3
3456.91
-52605.2
3381.52
-53430.3
3306.31
-54236.7
3231.31
-55024.4
3156.54
-55793.5
3082.02
-56544.1
3007.76
-57276.1
2933.78
-57989.8
2860.1
-58685.1
2786.73
-59362.2
2713.7
-60021.2
2641.02
-60662
2568.7
-61284.9
2496.75
-61889.9
2425.21
-62477.2
2354.07
-63046.8
2283.36
-63598.8
2213.09
-64133.4
2143.27
-64650.7
2073.93
-65150.8
2005.06
-65633.8
1936.7
-66099.9
1868.84
-66549.1
1801.51
-66981.6
1734.71
-67397.6
1668.46
-67797.2
1602.78
-68180.6
1537.67
-68547.8
1473.15
-68899.1
1409.22
-69234.5
1345.91
-69554.3
1283.21
-69858.6
1221.15
-70147.5
1159.73
-70421.3
1098.96
-70680
1038.84
-70923.9
979.401
-71153.1
920.637
-71367.9
862.559
-71568.3
805.175
-71754.5
748.493
-71926.8
692.52
-72085.2
637.262
-72230.1
582.727
-72361.5
528.918
-72479.6
475.843
-72584.7
423.505
-72676.9
371.911
-72756.4
321.062
-72823.4
270.964
-72878.1
221.62
-72920.7
173.032
-72951.3
125.203
-72970.1
78.1357
-72977.4
31.8307
-72973.4
-13.7104
-72958.1
-58.4867
-72931.9
-102.498
-72894.9
-145.743
-72847.2
-188.224
-72789.2
-229.941
-72720.9
-270.894
-72642.6
-311.085
-72554.5
-350.516
-72456.7
-389.19
-72349.4
-427.108
-72232.9
-464.273
-72107.3
-500.688
-71972.8
-536.358
-71829.5
-571.285
-71677.8
-605.474
-71517.7
-638.929
-71349.4
-671.654
-71173.1
-703.655
-70989.1
-734.936
-70797.4
-765.503
-70598.2
-795.361
-70391.8
-824.517
-70178.3
-852.976
-69957.9
-880.745
-69730.7
-907.83
-69496.9
-934.238
-69256.7
-959.975
-69010.3
-985.049
-68757.7
-1009.47
-68499.3
-1033.24
-68235
-1056.36
-67965.2
-1078.86
-67689.9
-1100.72
-67409.3
-1121.97
-67123.6
-1142.61
-66832.9
-1162.65
-66537.3
-1182.09
-66237
-1200.95
-65932.2
-1219.23
-65622.9
-1236.94
-65309.4
-1254.09
-64991.8
-1270.68
-64670.1
-1286.74
-64344.6
-1302.26
-64015.3
-1317.25
-63682.5
-1331.72
-63346.1
-1345.69
-63006.4
-1359.15
-62663.5
-1372.12
-62317.5
-1384.61
-61968.4
-1396.63
-61616.5
-1408.18
-61261.9
-1419.27
-60904.6
-1429.91
-60544.7
-1440.11
-60182.4
-1449.88
-59817.8
-1459.23
-59451
-1468.16
-59082.1
-1476.69
-58711.1
-1484.82
-58338.2
-1492.56
-57963.5
-1499.92
-57587
-1506.9
-57208.9
-1513.52
-56829.2
-1519.79
-56448.1
-1525.7
-56065.6
-1531.27
-55681.8
-1536.51
-55296.8
-1541.43
-54910.6
-1546.03
-54523.3
-1550.32
-54135.1
-1554.3
-53746
-1557.99
-53356
-1561.39
-52965.2
-1564.52
-52573.8
-1567.37
-52181.7
-1569.95
-51789
-1572.27
-51395.8
-1574.35
-51002.2
-1576.17
-50608.2
-1577.76
-50213.8
-1579.12
-49819.2
-1580.25
-49424.4
-1581.16
-49029.4
-1581.86
-48634.2
-1582.35
-48239
-1582.65
-47843.8
-1582.74
-47448.6
-1582.66
-47053.5
-1582.38
-46658.5
-1581.93
-46263.7
-1581.31
-45869.1
-1580.53
-45474.7
-1579.58
-45080.6
-1578.48
-44686.8
-1577.24
-44293.4
-1575.84
-43900.3
-1574.31
-43507.7
-1572.64
-43115.6
-1570.85
-42723.9
-1568.93
-42332.7
-1566.89
-41942.1
-1564.74
-41552
-1562.47
-41162.6
-1560.1
-40773.8
-1557.63
-40385.6
-1555.06
-39998.1
-1552.39
-39611.3
-1549.64
-39225.1
-1546.8
-38839.8
-1543.89
-38455.2
-1540.89
-38071.3
-1537.82
-37688.3
-1534.68
-37306
-1531.48
-36924.6
-1528.21
-36544
-1524.88
-36164.3
-1521.5
-35785.4
-1518.06
-35407.4
-1514.58
-35030.3
-1511.04
-34654.1
-1507.47
-34278.8
-1503.86
-33904.4
-1500.2
-33530.9
-1496.52
-33158.4
-1492.8
-32786.8
-1489.05
-32416.1
-1485.28
-32046.4
-1481.48
-31677.7
-1477.67
-31309.9
-1473.83
-30943.1
-1469.98
-30577.3
-1466.11
-30212.4
-1462.24
-29848.6
-1458.35
-29485.7
-1454.46
-29123.7
-1450.56
-28762.8
-1446.66
-28402.8
-1442.76
-28043.8
-1438.86
-27685.8
-1434.97
-27328.7
-1431.08
-26972.7
-1427.19
-26617.6
-1423.32
-26263.5
-1419.45
-25910.3
-1415.6
-25558.1
-1411.76
-25206.9
-1407.94
-24856.6
-1404.14
-24507.2
-1400.35
-24158.9
-1396.58
-23811.4
-1392.84
-23464.9
-1389.12
-23119.3
-1385.42
-22774.6
-1381.75
-22430.9
-1378.1
-22088.1
-1374.48
-21746.1
-1370.9
-21405.1
-1367.34
-21064.9
-1363.81
-20725.6
-1360.32
-20387.2
-1356.86
-20049.6
-1353.44
-19712.9
-1350.05
-19377
-1346.7
-19042
-1343.38
-18707.8
-1340.11
-18374.3
-1336.88
-18041.7
-1333.68
-17709.9
-1330.53
-17378.9
-1327.42
-17048.6
-1324.35
-16719.1
-1321.33
-16390.3
-1318.35
-16062.3
-1315.42
-15735
-1312.53
-15408.4
-1309.69
-15082.5
-1306.9
-14757.3
-1304.16
-14432.8
-1301.46
-14108.9
-1298.81
-13785.7
-1296.22
-13463.1
-1293.67
-13141.2
-1291.18
-12819.9
-1288.73
-12499.1
-1286.34
-12179
-1284
-11859.4
-1281.71
-11540.4
-1279.48
-11221.9
-1277.3
-10904
-1275.18
-10586.6
-1273.11
-10269.7
-1271.09
-9953.24
-1269.13
-9637.29
-1267.23
-9321.82
-1265.38
-9006.79
-1263.59
-8692.2
-1261.86
-8378.02
-1260.18
-8064.26
-1258.56
-7750.88
-1257
-7437.88
-1255.5
-7125.25
-1254.05
-6812.96
-1252.67
-6501.01
-1251.34
-6189.37
-1250.07
-5878.04
-1248.86
-5567
-1247.71
-5256.23
-1246.62
-4945.72
-1245.59
-4635.45
-1244.62
-4325.41
-1243.71
-4015.59
-1242.86
-3705.96
-1242.07
-3396.51
-1241.35
-3087.23
-1240.69
-2778.1
-1240.09
-2469.11
-1239.55
-2160.23
-1239.08
-1851.45
-1238.68
-1542.76
-1238.34
-1234.13
-1238.07
-925.563
-1237.86
-617.028
-1237.71
-308.513
-1237.63
-1237.61
-2067.01
10622.5
-4116.12
10510.8
-6131.06
10288.6
-8098.07
9979.7
-10006.7
9613.31
-11850.6
9218.82
-13626.8
8822.04
-15335.7
8442.53
-16980.2
8092.99
-18564.4
7779.85
-20093.5
7504.59
-21573.1
7265.32
-23008.5
7058.17
-24404.5
6878.35
-25765.5
6720.94
-27095.2
6581.3
-28396.6
6455.34
-29672.2
6339.62
-30923.9
6231.34
-32153.2
6128.27
-33361.1
6028.74
-34548.5
5931.49
-35715.8
5835.62
-36863.4
5740.53
-37991.6
5645.81
-39100.6
5551.2
-40190.4
5456.58
-41261
5361.86
-42312.6
5267.03
-43345
5172.1
-44358.4
5077.09
-45352.8
4982.02
-46328.1
4886.94
-47284.3
4791.89
-48221.6
4696.89
-49139.9
4601.99
-50039.2
4507.21
-50919.6
4412.59
-51781.1
4318.15
-52623.8
4223.92
-53447.7
4129.93
-54252.9
4036.2
-55039.4
3942.75
-55807.3
3849.62
-56556.6
3756.81
-57287.5
3664.36
-57999.9
3572.28
-58694.1
3480.6
-59370
3389.33
-60027.7
3298.5
-60667.4
3208.12
-61289.2
3118.22
-61893
3028.81
-62479.1
2939.91
-63047.6
2851.55
-63598.5
2763.73
-64132
2676.49
-64648.1
2589.83
-65147.1
2503.77
-65629
2418.34
-66093.9
2333.54
-66542.1
2249.4
-66973.5
2165.93
-67388.5
2083.15
-67787
2001.07
-68169.3
1919.71
-68535.4
1839.08
-68885.6
1759.2
-69220
1680.08
-69538.8
1601.74
-69842.1
1524.19
-70130
1447.44
-70402.7
1371.5
-70660.5
1296.39
-70903.4
1222.11
-71131.7
1148.68
-71345.4
1076.11
-71544.9
1004.41
-71730.1
933.588
-71901.5
863.65
-72059
794.607
-72202.9
726.467
-72333.4
659.237
-72450.7
592.922
-72554.9
527.531
-72646.2
463.068
-72724.9
399.538
-72791
336.947
-72844.9
275.298
-72886.6
214.595
-72916.4
154.841
-72934.4
96.0382
-72940.9
38.1892
-72936.1
-18.7046
-72920.1
-74.6423
-72893.1
-129.623
-72855.3
-183.647
-72806.9
-236.715
-72748.2
-288.827
-72679.2
-339.985
-72600.2
-390.191
-72511.4
-439.446
-72413
-487.754
-72305.1
-535.118
-72187.9
-581.54
-72061.7
-627.026
-71926.5
-671.579
-71782.7
-715.204
-71630.4
-757.906
-71469.7
-799.69
-71300.9
-840.562
-71124.1
-880.529
-70939.5
-919.597
-70747.3
-957.772
-70547.7
-995.061
-70340.8
-1031.47
-70126.8
-1067.01
-69906
-1101.69
-69678.3
-1135.51
-69444.1
-1168.49
-69203.5
-1200.63
-68956.7
-1231.94
-68703.8
-1262.43
-68445
-1292.11
-68180.4
-1320.98
-67910.2
-1349.07
-67634.6
-1376.37
-67353.7
-1402.9
-67067.7
-1428.67
-66776.7
-1453.68
-66480.8
-1477.95
-66180.3
-1501.49
-65875.3
-1524.31
-65565.8
-1546.42
-65252.1
-1567.83
-64934.2
-1588.55
-64612.4
-1608.58
-64286.7
-1627.95
-63957.3
-1646.66
-63624.3
-1664.73
-63287.8
-1682.16
-62948
-1698.96
-62605
-1715.15
-62258.9
-1730.73
-61909.8
-1745.73
-61557.8
-1760.14
-61203.1
-1773.98
-60845.7
-1787.25
-60485.8
-1799.98
-60123.5
-1812.17
-59758.9
-1823.83
-59392.1
-1834.97
-59023.2
-1845.61
-58652.2
-1855.75
-58279.3
-1865.4
-57904.7
-1874.58
-57528.3
-1883.29
-57150.2
-1891.54
-56770.6
-1899.35
-56389.6
-1906.72
-56007.2
-1913.67
-55623.5
-1920.2
-55238.5
-1926.33
-54852.5
-1932.06
-54465.4
-1937.4
-54077.3
-1942.36
-53688.3
-1946.96
-53298.5
-1951.19
-52907.9
-1955.08
-52516.6
-1958.63
-52124.7
-1961.84
-51732.2
-1964.73
-51339.2
-1967.3
-50945.8
-1969.57
-50552
-1971.54
-50157.9
-1973.22
-49763.5
-1974.62
-49368.9
-1975.75
-48974.1
-1976.61
-48579.2
-1977.22
-48184.2
-1977.57
-47789.3
-1977.68
-47394.4
-1977.56
-46999.5
-1977.2
-46604.8
-1976.63
-46210.3
-1975.85
-45815.9
-1974.86
-45421.8
-1973.66
-45028
-1972.28
-44634.5
-1970.71
-44241.4
-1968.96
-43848.7
-1967.03
-43456.4
-1964.94
-43064.5
-1962.69
-42673.2
-1960.28
-42282.3
-1957.72
-41892
-1955.02
-41502.3
-1952.19
-41113.2
-1949.21
-40724.7
-1946.12
-40336.9
-1942.9
-39949.7
-1939.56
-39563.2
-1936.12
-39177.5
-1932.56
-38792.5
-1928.91
-38408.2
-1925.16
-38024.8
-1921.32
-37642.1
-1917.39
-37260.2
-1913.38
-36879.1
-1909.29
-36498.9
-1905.12
-36119.6
-1900.89
-35741.1
-1896.59
-35363.4
-1892.23
-34986.7
-1887.81
-34610.9
-1883.34
-34236
-1878.82
-33862
-1874.25
-33488.9
-1869.64
-33116.8
-1864.99
-32745.6
-1860.3
-32375.3
-1855.58
-32006
-1850.84
-31637.7
-1846.06
-31270.3
-1841.27
-30903.9
-1836.45
-30538.5
-1831.62
-30174
-1826.77
-29810.6
-1821.91
-29448.1
-1817.04
-29086.5
-1812.17
-28726
-1807.29
-28366.4
-1802.42
-28007.9
-1797.54
-27650.2
-1792.67
-27293.6
-1787.81
-26938
-1782.95
-26583.3
-1778.11
-26229.6
-1773.28
-25876.8
-1768.46
-25525.1
-1763.66
-25174.2
-1758.88
-24824.4
-1754.13
-24475.5
-1749.39
-24127.5
-1744.69
-23780.5
-1740
-23434.4
-1735.35
-23089.2
-1730.73
-22744.9
-1726.14
-22401.6
-1721.58
-22059.2
-1717.06
-21717.7
-1712.58
-21377
-1708.13
-21037.3
-1703.72
-20698.4
-1699.36
-20360.4
-1695.03
-20023.3
-1690.75
-19687
-1686.52
-19351.5
-1682.33
-19016.9
-1678.19
-18683.1
-1674.1
-18350.1
-1670.05
-18017.9
-1666.06
-17686.5
-1662.12
-17355.9
-1658.24
-17026.1
-1654.4
-16697
-1650.62
-16368.6
-1646.9
-16041
-1643.24
-15714.1
-1639.63
-15388
-1636.08
-15062.5
-1632.59
-14737.7
-1629.16
-14413.6
-1625.79
-14090.2
-1622.48
-13767.4
-1619.24
-13445.2
-1616.06
-13123.7
-1612.94
-12802.8
-1609.88
-12482.5
-1606.9
-12162.7
-1603.97
-11843.6
-1601.11
-11525
-1598.32
-11206.9
-1595.6
-10889.4
-1592.95
-10572.4
-1590.36
-10255.9
-1587.84
-9939.93
-1585.39
-9624.41
-1583.02
-9309.35
-1580.71
-8994.74
-1578.47
-8680.56
-1576.3
-8366.81
-1574.21
-8053.46
-1572.18
-7740.5
-1570.23
-7427.92
-1568.35
-7115.7
-1566.55
-6803.83
-1564.81
-6492.29
-1563.15
-6181.07
-1561.57
-5870.16
-1560.06
-5559.53
-1558.62
-5249.18
-1557.25
-4939.08
-1555.97
-4629.23
-1554.75
-4319.61
-1553.62
-4010.2
-1552.56
-3700.98
-1551.57
-3391.95
-1550.67
-3083.09
-1549.84
-2774.37
-1549.09
-2465.79
-1548.43
-2157.33
-1547.84
-1848.96
-1547.33
-1540.69
-1546.91
-1232.48
-1546.57
-924.32
-1546.31
-616.198
-1546.13
-308.096
-1546.03
-1546
-2039.37
12661.5
-4063.16
12534.2
-6057.58
12282.6
-8010.5
11932.2
-9912.25
11514.6
-11756.1
11062.3
-13538.5
10603.9
-15258.2
10161.8
-16916.6
9750.95
-18516.5
9379.31
-20061.7
9049.47
-21556.9
8760.08
-23006.5
8507.44
-24415.1
8286.61
-25786.9
8092.33
-27125.4
7919.49
-28433.9
7763.49
-29714.9
7620.36
-30970.7
7486.8
-32202.9
7360.14
-33412.7
7238.3
-34601.3
7119.71
-35769.2
7003.22
-36916.9
6888
-38044.9
6773.5
-39153.4
6659.35
-40242.4
6545.35
-41312.2
6431.35
-42362.8
6317.32
-43394.2
6203.22
-44406.5
6089.08
-45399.7
5974.92
-46373.8
5860.76
-47328.9
5746.65
-48264.9
5632.63
-49182
5518.73
-50080
5404.99
-50959.2
5291.44
-51819.4
5178.12
-52660.9
5065.05
-53483.5
4952.27
-54287.4
4839.81
-55072.6
4727.69
-55839.2
4615.95
-56587.3
4504.6
-57316.9
4393.68
-58028.1
4283.2
-58721
4173.2
-59395.6
4063.7
-60052.1
3954.72
-60690.6
3846.29
-61311
3738.43
-61913.7
3631.16
-62498.5
3524.51
-63065.7
3418.49
-63615.4
3313.14
-64147.6
3208.46
-64662.5
3104.49
-65160.3
3001.25
-65640.9
2898.75
-66104.7
2797.02
-66551.6
2696.07
-66981.8
2595.93
-67395.5
2496.62
-67792.9
2398.15
-68173.9
2300.54
-68538.9
2203.81
-68887.9
2107.98
-69221.1
2013.07
-69538.7
1919.08
-69840.7
1826.04
-70127.5
1733.97
-70399.1
1642.87
-70655.7
1552.76