/*--------------------------------*- C++ -*----------------------------------*\
| =========                 |                                                 |
| \\      /  F ield         | OpenFOAM: The Open Source CFD Toolbox           |
|  \\    /   O peration     | Version:  2212                                  |
|   \\  /    A nd           | Website:  www.openfoam.com                      |
|    \\/     M anipulation  |                                                 |
\*---------------------------------------------------------------------------*/
FoamFile
{
    version     2.0;
    format      ascii;
    arch        "LSB;label=32;scalar=64";
    class       surfaceScalarField;
    location    "900";
    object      phi;
}
// * * * * * * * * * * * * * * * * * * * * * * * * * * * * * * * * * * * * * //

dimensions      [1 0 -1 0 0 0 0];

oriented        oriented;

internalField   nonuniform List<scalar> 
408640
(
-812.238
815.454
-1604.13
792.329
-2353.01
749.314
-3045.45
692.882
-3677.37
632.364
-4252.04
575.121
-4778.24
526.661
-5267.24
489.458
-5730.52
463.733
-6178.04
447.986
-6617.56
439.979
-7054.44
437.333
-7491.98
437.999
-7931.93
440.409
-8374.98
443.504
-8821.16
446.637
-9270.18
449.467
-9721.57
451.843
-10174.8
453.732
-10629.6
455.153
-11085.3
456.153
-11541.6
456.782
-11998.2
457.086
-12454.9
457.108
-12911.3
456.882
-13367.3
456.437
-13822.7
455.796
-14277.2
454.98
-14730.8
454.005
-15183.2
452.883
-15634.4
451.628
-16084.3
450.248
-16532.6
448.752
-16979.3
447.147
-17424.3
445.439
-17867.5
443.634
-18308.8
441.737
-18748.2
439.75
-19185.4
437.679
-19620.5
435.527
-20053.4
433.295
-20484
430.988
-20912.2
428.608
-21338
426.156
-21761.2
423.634
-22181.8
421.046
-22599.8
418.391
-23015.1
415.673
-23427.6
412.891
-23837.3
410.049
-24244
407.147
-24647.8
404.186
-25048.6
401.168
-25446.3
398.094
-25840.9
394.965
-26232.3
391.782
-26620.5
388.546
-27005.4
385.258
-27387
381.92
-27765.1
378.532
-28139.9
375.094
-28511.1
371.609
-28878.9
368.077
-29243
364.499
-29603.5
360.876
-29960.4
357.209
-30313.6
353.498
-30663
349.745
-31008.6
345.951
-31350.4
342.115
-31688.3
338.24
-32022.3
334.327
-32352.4
330.375
-32678.5
326.386
-33000.5
322.361
-33318.5
318.3
-33632.4
314.205
-33942.2
310.077
-34247.8
305.915
-34549.3
301.722
-34846.5
297.497
-35139.5
293.243
-35428.1
288.959
-35712.5
284.647
-35992.6
280.307
-36268.2
275.94
-36539.5
271.548
-36806.4
267.131
-37068.9
262.689
-37326.8
258.225
-37580.3
253.738
-37829.3
249.229
-38073.8
244.7
-38313.7
240.151
-38549.1
235.583
-38779.9
230.997
-39006
226.393
-39227.6
221.774
-39444.5
217.139
-39656.8
212.489
-39864.5
207.825
-40067.4
203.149
-40265.7
198.46
-40459.3
193.76
-40648.1
189.049
-40832.3
184.329
-41011.7
179.6
-41186.4
174.863
-41356.4
170.119
-41521.6
165.369
-41682.1
160.613
-41837.8
155.852
-41988.7
151.087
-42134.9
146.32
-42276.3
141.549
-42413
136.778
-42544.9
132.005
-42672
127.233
-42794.3
122.461
-42911.9
117.691
-43024.7
112.923
-43132.8
108.158
-43236.1
103.397
-43334.7
98.6401
-43428.5
93.8886
-43517.5
89.143
-43601.9
84.404
-43681.5
79.6724
-43756.4
74.9488
-43826.5
70.2339
-43892
65.5284
-43952.8
60.833
-44008.9
56.1482
-44060.4
51.4749
-44107.1
46.8135
-44149.3
42.1647
-44186.8
37.5292
-44219.7
32.9075
-44248
28.3004
-44271.7
23.7082
-44290.8
19.1318
-44305.4
14.5715
-44315.4
10.028
-44320.9
5.50183
-44321.9
0.993549
-44318.4
-3.49633
-44310.5
-7.96728
-44298.1
-12.4188
-44281.3
-16.8503
-44260.1
-21.2615
-44234.5
-25.6517
-44204.5
-30.0205
-44170.2
-34.3675
-44131.5
-38.6922
-44088.6
-42.9941
-44041.4
-47.2729
-43990
-51.5282
-43934.3
-55.7594
-43874.4
-59.9663
-43810.3
-64.1484
-43742.1
-68.3053
-43669.8
-72.4368
-43593.3
-76.5424
-43512.8
-80.6219
-43428.3
-84.6748
-43339.7
-88.7009
-43247.1
-92.6998
-43150.5
-96.6712
-43050.1
-100.615
-42945.7
-104.531
-42837.4
-108.418
-42725.2
-112.277
-42609.3
-116.107
-42489.5
-119.908
-42366
-123.68
-42238.7
-127.422
-42107.8
-131.135
-41973.1
-134.818
-41834.8
-138.471
-41692.9
-142.093
-41547.4
-145.685
-41398.3
-149.247
-41245.8
-152.778
-41089.7
-156.278
-40930.1
-159.747
-40767.1
-163.185
-40600.8
-166.592
-40431
-169.967
-40257.9
-173.311
-40081.5
-176.624
-39901.8
-179.905
-39718.9
-183.154
-39532.8
-186.372
-39343.4
-189.558
-39151
-192.712
-38955.4
-195.834
-38756.7
-198.924
-38555
-201.983
-38350.2
-205.01
-38142.5
-208.004
-37931.8
-210.967
-37718.1
-213.898
-37501.6
-216.797
-37282.2
-219.665
-37060
-222.5
-36835
-225.304
-36607.2
-228.076
-36376.6
-230.816
-36143.4
-233.524
-35907.5
-236.201
-35669
-238.847
-35427.8
-241.46
-35184.1
-244.043
-34937.8
-246.594
-34689
-249.114
-34437.7
-251.603
-34183.9
-254.061
-33927.8
-256.488
-33669.2
-258.884
-33408.3
-261.249
-33145
-263.584
-32879.5
-265.888
-32611.7
-268.162
-32341.6
-270.406
-32069.3
-272.619
-31794.9
-274.803
-31518.3
-276.956
-31239.5
-279.08
-30958.7
-281.175
-30675.8
-283.24
-30390.9
-285.275
-30104
-287.281
-29815.1
-289.259
-29524.3
-291.207
-29231.5
-293.127
-28936.9
-295.019
-28640.4
-296.882
-28342
-298.716
-28041.9
-300.523
-27740
-302.302
-27436.3
-304.053
-27130.9
-305.776
-26823.8
-307.473
-26515.1
-309.141
-26204.7
-310.783
-25892.7
-312.398
-25579.1
-313.986
-25264
-315.548
-24947.3
-317.083
-24629.1
-318.592
-24309.4
-320.075
-23988.3
-321.533
-23665.8
-322.964
-23341.8
-324.37
-23016.5
-325.751
-22689.8
-327.106
-22361.8
-328.436
-22032.5
-329.742
-21701.9
-331.023
-21370
-332.279
-21036.9
-333.511
-20702.7
-334.719
-20367.2
-335.903
-20030.6
-337.063
-19692.8
-338.199
-19353.9
-339.312
-19014
-340.401
-18672.9
-341.467
-18330.9
-342.511
-17987.8
-343.531
-17643.7
-344.528
-17298.6
-345.503
-16952.6
-346.456
-16605.7
-347.386
-16257.9
-348.294
-15909.1
-349.18
-15559.5
-350.044
-15209.1
-350.887
-14857.9
-351.708
-14505.8
-352.507
-14153
-353.285
-13799.4
-354.042
-13445.1
-354.778
-13090.1
-355.493
-12734.3
-356.187
-12377.9
-356.861
-12020.9
-357.514
-11663.2
-358.146
-11304.9
-358.759
-10946
-359.351
-10586.6
-359.923
-10226.6
-360.475
-9866.04
-361.008
-9504.99
-361.52
-9143.44
-362.013
-8781.43
-362.487
-8418.96
-362.942
-8056.06
-363.377
-7692.74
-363.793
-7329.03
-364.19
-6964.93
-364.569
-6600.48
-364.928
-6235.69
-365.269
-5870.57
-365.591
-5505.16
-365.895
-5139.45
-366.181
-4773.48
-366.448
-4407.27
-366.697
-4040.82
-366.928
-3674.16
-367.14
-3307.31
-367.333
-2940.28
-367.509
-2573.09
-367.665
-2205.77
-367.803
-1838.33
-367.923
-1470.79
-368.023
-1103.16
-368.104
-735.478
-368.166
-367.751
-368.209
-368.232
-800.995
1616.88
-1581.62
1573.38
-2321.72
1489.85
-3008.74
1380.34
-3638.3
1262.37
-4213.25
1150.52
-4741.58
1055.45
-5233.83
982.158
-5700.8
931.158
-6151.99
899.643
-6594.86
883.307
-7034.62
877.544
-7474.53
878.362
-7916.35
882.691
-8360.84
888.448
-8808.1
894.351
-9257.9
899.715
-9709.84
904.233
-10163.5
907.826
-10618.4
910.525
-11074.2
912.412
-11530.6
913.581
-11987.2
914.121
-12443.7
914.109
-12900
913.613
-13355.8
912.687
-13811
911.377
-14265.3
909.72
-14718.6
907.75
-15170.7
905.491
-15621.6
902.967
-16071.2
900.196
-16519.2
897.194
-16965.6
893.977
-17410.3
890.554
-17853.2
886.939
-18294.1
883.139
-18733.1
879.162
-19170
875.017
-19604.8
870.709
-20037.4
866.244
-20467.6
861.628
-20895.4
856.866
-21320.8
851.961
-21743.7
846.917
-22164
841.739
-22581.7
836.43
-22996.6
830.993
-23408.7
825.431
-23818
819.747
-24224.5
813.943
-24627.9
808.022
-25028.3
801.987
-25425.7
795.84
-25820
789.583
-26211
783.218
-26598.9
776.747
-26983.4
770.173
-27364.6
763.498
-27742.5
756.722
-28116.9
749.85
-28487.8
742.881
-28855.2
735.819
-29219
728.665
-29579.2
721.421
-29935.7
714.088
-30288.6
706.669
-30637.7
699.165
-30983
691.578
-31324.4
683.91
-31662
676.162
-31995.7
668.337
-32325.5
660.436
-32651.2
652.46
-32973
644.412
-33290.7
636.294
-33604.3
628.106
-33913.8
619.852
-34219.1
611.532
-34520.2
603.148
-34817.2
594.702
-35109.8
586.196
-35398.2
577.631
-35682.3
569.009
-35962.1
560.332
-36237.5
551.602
-36508.5
542.821
-36775.1
533.989
-37037.3
525.109
-37295
516.183
-37548.2
507.212
-37797
498.198
-38041.2
489.143
-38280.9
480.048
-38516
470.916
-38746.5
461.747
-38972.4
452.544
-39193.8
443.308
-39410.5
434.041
-39622.5
424.745
-39829.9
415.421
-40032.6
406.072
-40230.7
396.698
-40424.1
387.301
-40612.7
377.884
-40796.7
368.447
-40975.9
358.993
-41150.4
349.523
-41320.2
340.038
-41485.2
330.541
-41645.4
321.033
-41801
311.515
-41951.7
301.99
-42097.7
292.458
-42239
282.922
-42375.5
273.383
-42507.2
263.841
-42634.1
254.3
-42756.3
244.761
-42873.7
235.225
-42986.4
225.693
-43094.3
216.167
-43197.5
206.648
-43295.9
197.139
-43389.6
187.64
-43478.5
178.153
-43562.7
168.679
-43642.2
159.22
-43717
149.777
-43787
140.352
-43852.4
130.945
-43913.1
121.558
-43969.1
112.193
-44020.4
102.85
-44067.1
93.5314
-44109.1
84.2381
-44146.5
74.9713
-44179.4
65.7322
-44207.6
56.5221
-44231.2
47.3421
-44250.2
38.1934
-44264.8
29.0771
-44274.7
19.9943
-44280.2
10.9463
-44281.1
1.93397
-44277.6
-7.04153
-44269.6
-15.9792
-44257.2
-24.8779
-44240.3
-33.7368
-44219.1
-42.5548
-44193.5
-51.3309
-44163.5
-60.0643
-44129.1
-68.754
-44090.5
-77.3992
-44047.5
-85.9988
-44000.3
-94.5522
-43948.9
-103.058
-43893.2
-111.517
-43833.3
-119.926
-43769.3
-128.286
-43701.1
-136.596
-43628.8
-144.855
-43552.3
-153.062
-43471.8
-161.216
-43387.3
-169.318
-43298.8
-177.366
-43206.2
-185.36
-43109.7
-193.298
-43009.3
-201.182
-42904.9
-209.009
-42796.7
-216.78
-42684.6
-224.494
-42568.7
-232.15
-42449.1
-239.748
-42325.6
-247.287
-42198.4
-254.768
-42067.5
-262.189
-41933
-269.551
-41794.8
-276.853
-41652.9
-284.094
-41507.5
-291.274
-41358.6
-298.393
-41206.1
-305.451
-41050.1
-312.447
-40890.7
-319.381
-40727.8
-326.253
-40561.5
-333.063
-40391.9
-339.81
-40218.9
-346.494
-40042.7
-353.116
-39863.1
-359.674
-39680.3
-366.169
-39494.3
-372.601
-39305.2
-378.969
-39112.8
-385.273
-38917.4
-391.514
-38718.9
-397.691
-38517.3
-403.805
-38312.7
-409.855
-38105.1
-415.841
-37894.6
-421.763
-37681.1
-427.621
-37464.8
-433.416
-37245.6
-439.147
-37023.5
-444.814
-36798.7
-450.418
-36571.1
-455.959
-36340.8
-461.436
-36107.7
-466.849
-35872
-472.2
-35633.7
-477.487
-35392.7
-482.712
-35149.2
-487.874
-34903.2
-492.973
-34654.6
-498.01
-34403.5
-502.985
-34150
-507.897
-33894
-512.748
-33635.7
-517.537
-33375
-522.265
-33112
-526.931
-32846.7
-531.537
-32579.1
-536.082
-32309.3
-540.566
-32037.3
-544.99
-31763.1
-549.354
-31486.7
-553.659
-31208.2
-557.904
-30927.7
-562.09
-30645.1
-566.217
-30360.4
-570.285
-30073.8
-574.295
-29785.1
-578.248
-29494.6
-582.142
-29202.1
-585.979
-28907.7
-589.76
-28611.5
-593.483
-28313.4
-597.15
-28013.6
-600.761
-27711.9
-604.316
-27408.6
-607.816
-27103.5
-611.261
-26796.7
-614.65
-26488.2
-617.986
-26178.2
-621.267
-25866.5
-624.495
-25553.2
-627.669
-25238.3
-630.79
-24922
-633.859
-24604.1
-636.875
-24284.7
-639.839
-23963.9
-642.751
-23641.7
-645.612
-23318.1
-648.422
-22993
-651.181
-22666.7
-653.89
-22339
-656.549
-22010
-659.158
-21679.7
-661.718
-21348.2
-664.229
-21015.4
-666.691
-20681.5
-669.105
-20346.4
-671.471
-20010.1
-673.79
-19672.6
-676.06
-19334.1
-678.284
-18994.5
-680.462
-18653.8
-682.593
-18312.1
-684.677
-17969.3
-686.716
-17625.6
-688.71
-17280.9
-690.658
-16935.2
-692.562
-16588.6
-694.421
-16241.1
-696.236
-15892.8
-698.007
-15543.5
-699.734
-15193.5
-701.417
-14842.6
-703.058
-14490.9
-704.656
-14138.4
-706.211
-13785.2
-707.724
-13431.2
-709.194
-13076.6
-710.623
-12721.2
-712.011
-12365.2
-713.357
-12008.5
-714.662
-11651.2
-715.926
-11293.2
-717.15
-10934.7
-718.333
-10575.6
-719.476
-10216
-720.58
-9855.84
-721.644
-9495.16
-722.669
-9133.99
-723.654
-8772.35
-724.601
-8410.26
-725.509
-8047.73
-726.379
-7684.78
-727.21
-7321.44
-728.004
-6957.73
-728.76
-6593.65
-729.479
-6229.24
-730.16
-5864.5
-730.805
-5499.46
-731.412
-5134.14
-731.983
-4768.54
-732.517
-4402.71
-733.014
-4036.64
-733.475
-3670.36
-733.899
-3303.88
-734.286
-2937.23
-734.636
-2570.43
-734.95
-2203.49
-735.225
-1836.43
-735.463
-1469.27
-735.664
-1102.02
-735.826
-734.72
-735.95
-367.373
-736.036
-736.086
-784.242
2401.55
-1549.47
2339.04
-2277.49
2218.31
-2956.78
2060.07
-3582.98
1889.02
-4158.34
1726.34
-4689.86
1587.43
-5186.97
1479.73
-5659.53
1404.18
-6116.34
1356.91
-6564.37
1331.8
-7008.6
1322.23
-7452.22
1322.44
-7897.05
1327.97
-8343.89
1335.75
-8792.98
1343.89
-9244.16
1351.35
-9697.14
1357.67
-10151.6
1362.69
-10607
1366.46
-11063.2
1369.07
-11519.9
1370.65
-11976.6
1371.32
-12433.3
1371.19
-12889.6
1370.36
-13345.3
1368.89
-13800.4
1366.87
-14254.6
1364.34
-14707.7
1361.34
-15159.7
1357.92
-15610.4
1354.1
-16059.7
1349.92
-16507.5
1345.4
-16953.6
1340.56
-17398.1
1335.41
-17840.7
1329.97
-18281.4
1324.26
-18720.1
1318.29
-19156.7
1312.06
-19591.2
1305.6
-20023.4
1298.89
-20453.4
1291.96
-20880.9
1284.82
-21306
1277.46
-21728.6
1269.89
-22148.5
1262.12
-22565.9
1254.15
-22980.5
1246
-23392.3
1237.65
-23801.3
1229.13
-24207.4
1220.42
-24610.5
1211.54
-25010.6
1202.49
-25407.7
1193.27
-25801.6
1183.88
-26192.4
1174.33
-26579.9
1164.63
-26964.1
1154.77
-27345
1144.76
-27722.5
1134.6
-28096.6
1124.29
-28467.2
1113.84
-28834.3
1103.25
-29197.8
1092.52
-29557.7
1081.66
-29913.9
1070.66
-30266.5
1059.53
-30615.2
1048.28
-30960.2
1036.9
-31301.4
1025.4
-31638.7
1013.78
-31972.1
1002.05
-32301.5
990.2
-32627
978.24
-32948.5
966.172
-33265.9
953.998
-33579.2
941.72
-33888.4
929.341
-34193.4
916.865
-34494.3
904.293
-34790.9
891.627
-35083.3
878.872
-35371.5
866.029
-35655.3
853.1
-35934.8
840.089
-36209.9
826.998
-36480.7
813.83
-36747
800.586
-37008.9
787.271
-37266.4
773.886
-37519.4
760.434
-37767.8
746.918
-38011.8
733.339
-38251.2
719.702
-38486.1
706.008
-38716.4
692.259
-38942.1
678.459
-39163.2
664.61
-39379.7
650.715
-39591.5
636.775
-39798.7
622.795
-40001.2
608.775
-40199
594.719
-40392.2
580.629
-40580.6
566.508
-40764.4
552.359
-40943.4
538.182
-41117.7
523.982
-41287.2
509.761
-41452.1
495.521
-41612.2
481.264
-41767.5
466.993
-41918.1
452.71
-42063.9
438.418
-42205
424.118
-42341.3
409.815
-42472.8
395.509
-42599.6
381.203
-42721.6
366.899
-42838.9
352.6
-42951.4
338.308
-43059.2
324.025
-43162.2
309.753
-43260.5
295.495
-43354
281.252
-43442.8
267.027
-43526.9
252.822
-43606.2
238.639
-43680.9
224.481
-43750.8
210.348
-43816
196.244
-43876.6
182.169
-43932.5
168.127
-43983.7
154.119
-44030.3
140.147
-44072.3
126.213
-44109.6
112.319
-44142.3
98.4666
-44170.4
84.6574
-44194
70.8934
-44213
57.1763
-44227.4
43.5079
-44237.3
29.8898
-44242.7
16.3238
-44243.6
2.81138
-44240
-10.6458
-44231.9
-24.0462
-44219.5
-37.3882
-44202.6
-50.6705
-44181.3
-63.8914
-44155.6
-77.0495
-44125.6
-90.1435
-44091.2
-103.172
-44052.5
-116.134
-44009.6
-129.027
-43962.3
-141.851
-43910.9
-154.604
-43855.2
-167.285
-43795.3
-179.894
-43731.2
-192.428
-43663
-204.886
-43590.7
-217.268
-43514.3
-229.573
-43433.8
-241.799
-43349.3
-253.945
-43260.8
-266.011
-43168.3
-277.996
-43071.8
-289.898
-42971.4
-301.717
-42867.1
-313.452
-42758.9
-325.102
-42646.9
-336.667
-42531
-348.145
-42411.4
-359.536
-42288
-370.84
-42160.9
-382.055
-42030
-393.181
-41895.5
-404.218
-41757.4
-415.164
-41615.6
-426.02
-41470.3
-436.785
-41321.4
-447.458
-41169
-458.039
-41013.1
-468.527
-40853.8
-478.923
-40691
-489.225
-40524.9
-499.434
-40355.3
-509.549
-40182.5
-519.57
-40006.3
-529.496
-39826.9
-539.328
-39644.2
-549.065
-39458.3
-558.707
-39269.3
-568.254
-39077.1
-577.705
-38881.8
-587.061
-38683.4
-596.322
-38482
-605.487
-38277.5
-614.556
-38070.1
-623.53
-37859.7
-632.408
-37646.4
-641.19
-37430.2
-649.877
-37211.2
-658.469
-36989.3
-666.965
-36764.6
-675.365
-36537.2
-683.671
-36307.1
-691.881
-36074.2
-699.997
-35838.7
-708.018
-35600.5
-715.944
-35359.8
-723.777
-35116.4
-731.515
-34870.5
-739.159
-34622.2
-746.709
-34371.3
-754.167
-34118
-761.531
-33862.2
-768.803
-33604.1
-775.982
-33343.6
-783.069
-33080.8
-790.064
-32815.7
-796.968
-32548.4
-803.781
-32278.8
-810.503
-32007
-817.135
-31733
-823.677
-31456.9
-830.129
-31178.7
-836.493
-30898.3
-842.767
-30615.9
-848.954
-30331.5
-855.052
-30045.1
-861.064
-29756.8
-866.988
-29466.4
-872.826
-29174.2
-878.578
-28880.1
-884.244
-28584.1
-889.826
-28286.4
-895.322
-27986.8
-900.735
-27685.4
-906.064
-27382.3
-911.31
-27077.5
-916.474
-26771
-921.555
-26462.8
-926.555
-26153
-931.473
-25841.5
-936.312
-25528.5
-941.07
-25214
-945.748
-24897.9
-950.347
-24580.3
-954.868
-24261.3
-959.311
-23940.7
-963.676
-23618.8
-967.965
-23295.5
-972.177
-22970.8
-976.312
-22644.7
-980.373
-22317.3
-984.358
-21988.6
-988.269
-21658.7
-992.107
-21327.4
-995.87
-20995
-999.561
-20661.4
-1003.18
-20326.5
-1006.73
-19990.6
-1010.2
-19653.5
-1013.6
-19315.2
-1016.94
-18975.9
-1020.2
-18635.6
-1023.4
-18294.2
-1026.52
-17951.8
-1029.58
-17608.3
-1032.56
-17264
-1035.49
-16918.6
-1038.34
-16572.4
-1041.12
-16225.2
-1043.84
-15877.2
-1046.5
-15528.3
-1049.09
-15178.5
-1051.61
-14828
-1054.07
-14476.6
-1056.47
-14124.5
-1058.8
-13771.6
-1061.06
-13418
-1063.27
-13063.7
-1065.41
-12708.7
-1067.49
-12353
-1069.51
-11996.7
-1071.46
-11639.7
-1073.36
-11282.1
-1075.19
-10923.9
-1076.97
-10565.2
-1078.68
-10205.9
-1080.33
-9846.11
-1081.93
-9485.79
-1083.46
-9124.97
-1084.94
-8763.69
-1086.36
-8401.95
-1087.72
-8039.77
-1089.02
-7677.19
-1090.27
-7314.21
-1091.46
-6950.85
-1092.59
-6587.13
-1093.67
-6223.07
-1094.69
-5858.7
-1095.66
-5494.02
-1096.57
-5129.05
-1097.42
-4763.83
-1098.22
-4398.35
-1098.97
-4032.64
-1099.66
-3666.72
-1100.3
-3300.61
-1100.88
-2934.33
-1101.4
-2567.89
-1101.87
-2201.31
-1102.28
-1834.61
-1102.64
-1467.81
-1102.94
-1100.93
-1103.19
-733.991
-1103.37
-367.006
-1103.5
-1103.57
-761.823
3163.8
-1506.43
3084.08
-2218.31
2930.62
-2887.25
2729.45
-3509.01
2511.23
-4085.06
2302.84
-4621.05
2123.87
-5124.96
1984.09
-5605.34
1885.02
-6069.99
1822.02
-6525.26
1787.52
-6975.79
1773.22
-7424.69
1771.8
-7873.79
1777.52
-8324.04
1786.45
-8775.79
1796.09
-9229.05
1805.06
-9683.64
1812.71
-10139.3
1818.8
-10595.7
1823.34
-11052.7
1826.45
-11509.8
1828.26
-11967
1828.92
-12423.9
1828.56
-12880.4
1827.3
-13336.3
1825.23
-13791.4
1822.43
-14245.6
1818.97
-14698.8
1814.9
-15150.7
1810.28
-15601.3
1805.15
-16050.5
1799.53
-16498.1
1793.47
-16944.1
1786.98
-17388.4
1780.09
-17830.8
1772.82
-18271.3
1765.18
-18709.8
1757.2
-19146.2
1748.89
-19580.4
1740.25
-20012.4
1731.3
-20442.1
1722.06
-20869.4
1712.52
-21294.2
1702.7
-21716.6
1692.6
-22136.3
1682.24
-22553.3
1671.61
-22967.7
1660.73
-23379.2
1649.6
-23788
1638.23
-24193.8
1626.62
-24596.6
1614.78
-24996.5
1602.71
-25393.2
1590.41
-25786.9
1577.9
-26177.4
1565.17
-26564.6
1552.23
-26948.6
1539.09
-27329.2
1525.74
-27706.4
1512.19
-28080.2
1498.45
-28450.5
1484.52
-28817.3
1470.4
-29180.6
1456.09
-29540.2
1441.61
-29896.1
1426.95
-30248.4
1412.12
-30596.9
1397.12
-30941.6
1381.95
-31282.5
1366.62
-31619.6
1351.13
-31952.7
1335.49
-32281.9
1319.69
-32607.1
1303.75
-32928.2
1287.66
-33245.4
1271.43
-33558.4
1255.07
-33867.4
1238.57
-34172.1
1221.93
-34472.7
1205.18
-34769.1
1188.29
-35061.3
1171.29
-35349.1
1154.17
-35632.7
1136.94
-35911.9
1119.59
-36186.8
1102.14
-36457.3
1084.59
-36723.4
1066.94
-36985.1
1049.19
-37242.3
1031.35
-37495
1013.41
-37743.3
995.397
-37987
977.298
-38226.2
959.119
-38460.9
940.866
-38690.9
922.54
-38916.4
904.145
-39137.3
885.685
-39353.5
867.164
-39565.1
848.583
-39772.1
829.948
-39974.4
811.261
-40172
792.526
-40364.9
773.745
-40553.2
754.923
-40736.7
736.063
-40915.5
717.167
-41089.6
698.24
-41259
679.284
-41423.6
660.303
-41583.5
641.3
-41738.6
622.278
-41889
603.241
-42034.7
584.191
-42175.5
565.132
-42311.7
546.067
-42443
526.999
-42569.7
507.931
-42691.5
488.866
-42808.6
469.807
-42921
450.758
-43028.6
431.72
-43131.4
412.698
-43229.5
393.694
-43322.9
374.711
-43411.6
355.751
-43495.5
336.818
-43574.7
317.915
-43649.2
299.044
-43719
280.208
-43784.1
261.409
-43844.5
242.65
-43900.3
223.935
-43951.4
205.265
-43997.9
186.643
-44039.7
168.072
-44076.9
149.553
-44109.5
131.091
-44137.5
112.686
-44161
94.3412
-44179.9
76.0592
-44194.2
57.8422
-44204
39.6923
-44209.3
21.6118
-44210.1
3.60279
-44206.5
-14.3325
-44198.3
-32.1921
-44185.8
-49.9739
-44168.8
-67.6759
-44147.4
-85.2961
-44121.7
-102.833
-44091.6
-120.284
-44057.2
-137.647
-44018.5
-154.922
-43975.5
-172.105
-43928.2
-189.196
-43876.7
-206.193
-43820.9
-223.093
-43761
-239.896
-43696.9
-256.601
-43628.7
-273.204
-43556.4
-289.706
-43479.9
-306.104
-43399.4
-322.398
-43314.9
-338.585
-43226.4
-354.665
-43133.8
-370.637
-43037.4
-386.499
-42937
-402.25
-42832.7
-417.889
-42724.5
-433.414
-42612.5
-448.826
-42496.6
-464.123
-42377
-479.303
-42253.6
-494.367
-42126.5
-509.313
-41995.8
-524.14
-41861.3
-538.848
-41723.2
-553.436
-41581.5
-567.903
-41436.2
-582.248
-41287.4
-596.471
-41135
-610.572
-40979.2
-624.549
-40819.9
-638.402
-40657.2
-652.131
-40491.1
-665.736
-40321.7
-679.215
-40148.9
-692.568
-39972.8
-705.796
-39793.5
-718.898
-39610.9
-731.873
-39425.1
-744.722
-39236.1
-757.444
-39044
-770.038
-38848.8
-782.506
-38650.6
-794.846
-38449.2
-807.059
-38244.9
-819.144
-38037.6
-831.102
-37827.3
-842.932
-37614.2
-854.635
-37398.1
-866.211
-37179.2
-877.659
-36957.4
-888.98
-36732.9
-900.175
-36505.6
-911.242
-36275.6
-922.182
-36042.9
-932.997
-35807.5
-943.685
-35569.5
-954.246
-35328.9
-964.683
-35085.7
-974.994
-34840
-985.179
-34591.8
-995.241
-34341.1
-1005.18
-34088
-1014.99
-33832.4
-1024.68
-33574.5
-1034.25
-33314.2
-1043.69
-33051.6
-1053.01
-32786.7
-1062.21
-32519.5
-1071.29
-32250.1
-1080.24
-31978.5
-1089.08
-31704.7
-1097.8
-31428.8
-1106.39
-31150.8
-1114.87
-30870.7
-1123.23
-30588.5
-1131.48
-30304.3
-1139.6
-30018.1
-1147.61
-29730
-1155.5
-29439.9
-1163.28
-29147.9
-1170.95
-28854
-1178.5
-28558.3
-1185.93
-28260.7
-1193.26
-27961.4
-1200.47
-27660.2
-1207.57
-27357.4
-1214.56
-27052.8
-1221.44
-26746.5
-1228.21
-26438.6
-1234.87
-26129.1
-1241.42
-25817.9
-1247.87
-25505.2
-1254.21
-25190.9
-1260.44
-24875
-1266.57
-24557.7
-1272.59
-24238.9
-1278.51
-23918.7
-1284.33
-23597
-1290.04
-23274
-1295.65
-22949.5
-1301.17
-22623.7
-1306.57
-22296.6
-1311.88
-21968.2
-1317.1
-21638.6
-1322.21
-21307.6
-1327.22
-20975.5
-1332.14
-20642.1
-1336.96
-20307.6
-1341.68
-19971.9
-1346.31
-19635.1
-1350.85
-19297.2
-1355.29
-18958.2
-1359.64
-18618.1
-1363.89
-18277.1
-1368.06
-17934.9
-1372.13
-17591.8
-1376.11
-17247.8
-1380
-16902.8
-1383.8
-16556.8
-1387.51
-16210
-1391.14
-15862.2
-1394.67
-15513.7
-1398.12
-15164.2
-1401.48
-14814
-1404.76
-14463
-1407.95
-14111.2
-1411.06
-13758.6
-1414.08
-13405.3
-1417.01
-13051.3
-1419.87
-12696.7
-1422.64
-12341.3
-1425.33
-11985.3
-1427.93
-11628.7
-1430.46
-11271.4
-1432.9
-10913.6
-1435.26
-10555.2
-1437.55
-10196.2
-1439.75
-9836.76
-1441.87
-9476.78
-1443.92
-9116.3
-1445.89
-8755.36
-1447.78
-8393.96
-1449.59
-8032.13
-1451.33
-7669.88
-1452.99
-7307.24
-1454.57
-6944.23
-1456.08
-6580.86
-1457.52
-6217.15
-1458.88
-5853.12
-1460.16
-5488.78
-1461.38
-5124.17
-1462.52
-4759.28
-1463.58
-4394.15
-1464.58
-4028.8
-1465.5
-3663.23
-1466.34
-3297.46
-1467.12
-2931.53
-1467.82
-2565.44
-1468.44
-2199.21
-1468.99
-1832.86
-1469.47
-1466.41
-1469.87
-1099.88
-1470.19
-733.293
-1470.44
-366.66
-1470.61
-1470.71
-740.393
3904.62
-1465.43
3809.54
-2161.75
3627.39
-2820.4
3388.53
-3437.29
3128.57
-4013.29
2879.29
-4552.88
2663.91
-5062.76
2494.43
-5550.27
2372.99
-6022.29
2294.5
-6484.52
2250.21
-6941.27
2230.42
-7395.47
2226.46
-7848.99
2231.5
-8302.84
2240.75
-8757.49
2251.2
-9213.07
2261.09
-9669.51
2269.59
-10126.6
2276.37
-10584.2
2281.39
-11042.1
2284.75
-11500
2286.6
-11957.7
2287.09
-12415.1
2286.38
-12871.9
2284.58
-13328.1
2281.81
-13783.4
2278.16
-14237.7
2273.71
-14690.9
2268.53
-15142.8
2262.67
-15593.4
2256.17
-16042.5
2249.09
-16490.1
2241.46
-16936
2233.3
-17380.1
2224.65
-17822.4
2215.53
-18262.8
2205.96
-18701.1
2195.96
-19137.4
2185.54
-19571.4
2174.72
-20003.2
2163.52
-20432.7
2151.95
-20859.8
2140.01
-21284.4
2127.73
-21706.5
2115.1
-22126
2102.13
-22542.9
2088.85
-22957
2075.24
-23368.3
2061.32
-23776.8
2047.11
-24182.4
2032.59
-24585
2017.78
-24984.6
2002.69
-25381.1
1987.32
-25774.5
1971.68
-26164.8
1955.77
-26551.7
1939.59
-26935.5
1923.16
-27315.8
1906.47
-27692.8
1889.54
-28066.4
1872.36
-28436.5
1854.95
-28803
1837.3
-29166
1819.42
-29525.4
1801.32
-29881.1
1783
-30233.1
1764.46
-30581.3
1745.71
-30925.8
1726.75
-31266.5
1707.59
-31603.2
1688.23
-31936.1
1668.68
-32265
1648.94
-32590
1629.02
-32910.9
1608.91
-33227.8
1588.63
-33540.6
1568.17
-33849.3
1547.55
-34153.9
1526.76
-34454.2
1505.82
-34750.4
1484.72
-35042.3
1463.47
-35329.9
1442.08
-35613.3
1420.54
-35892.3
1398.86
-36166.9
1377.06
-36437.2
1355.12
-36703.1
1333.06
-36964.5
1310.88
-37221.5
1288.58
-37474
1266.17
-37722
1243.65
-37965.5
1221.04
-38204.5
1198.32
-38438.9
1175.51
-38668.8
1152.61
-38894
1129.62
-39114.7
1106.55
-39330.7
1083.4
-39542.1
1060.18
-39748.9
1036.9
-39951
1013.54
-40148.4
990.13
-40341.1
966.661
-40529.2
943.139
-40712.5
919.57
-40891.1
895.958
-41065
872.305
-41234.2
848.617
-41398.7
824.898
-41558.4
801.151
-41713.3
777.381
-41863.5
753.591
-42009
729.786
-42149.7
705.97
-42285.7
682.145
-42416.9
658.318
-42543.3
634.49
-42665
610.666
-42781.9
586.85
-42894.1
563.046
-43001.6
539.257
-43104.3
515.487
-43202.2
491.739
-43295.4
468.018
-43383.9
444.327
-43467.7
420.669
-43546.8
397.047
-43621.1
373.466
-43690.8
349.929
-43755.8
326.439
-43816.1
302.999
-43871.7
279.613
-43922.7
256.283
-43969
233.014
-44010.8
209.809
-44047.8
186.669
-44080.3
163.599
-44108.2
140.602
-44131.6
117.679
-44150.3
94.8356
-44164.6
72.073
-44174.3
49.3943
-44179.5
26.8024
-44180.2
4.29988
-44176.4
-18.1105
-44168.2
-40.4261
-44155.6
-62.6445
-44138.5
-84.7631
-44117.1
-106.779
-44091.3
-128.691
-44061.1
-150.496
-44026.6
-172.191
-43987.8
-193.775
-43944.8
-215.246
-43897.4
-236.6
-43845.9
-257.837
-43790.1
-278.954
-43730.1
-299.948
-43666
-320.819
-43597.7
-341.565
-43525.3
-362.183
-43448.9
-382.671
-43368.3
-403.029
-43283.8
-423.254
-43195.2
-443.345
-43102.7
-463.3
-43006.2
-483.118
-42905.7
-502.798
-42801.4
-522.337
-42693.3
-541.735
-42581.2
-560.991
-42465.4
-580.102
-42345.8
-599.069
-42222.4
-617.889
-42095.3
-636.562
-41964.5
-655.087
-41830.1
-673.463
-41692
-691.688
-41550.3
-709.762
-41405.1
-727.685
-41256.3
-745.455
-41104
-763.071
-40948.2
-780.533
-40788.9
-797.841
-40626.3
-814.993
-40460.2
-831.989
-40290.8
-848.829
-40118.1
-865.512
-39942.1
-882.038
-39762.8
-898.406
-39580.3
-914.616
-39394.6
-930.668
-39205.7
-946.561
-39013.7
-962.295
-38818.5
-977.871
-38620.3
-993.287
-38419.1
-1008.54
-38214.9
-1023.64
-38007.6
-1038.58
-37797.5
-1053.36
-37584.4
-1067.98
-37368.4
-1082.44
-37149.6
-1096.74
-36928
-1110.89
-36703.6
-1124.87
-36476.4
-1138.7
-36246.5
-1152.36
-36013.9
-1165.87
-35778.7
-1179.22
-35540.8
-1192.42
-35300.3
-1205.46
-35057.3
-1218.34
-34811.7
-1231.06
-34563.7
-1243.63
-34313.1
-1256.04
-34060.1
-1268.3
-33804.7
-1280.4
-33546.9
-1292.35
-33286.8
-1304.15
-33024.4
-1315.79
-32759.6
-1327.28
-32492.6
-1338.62
-32223.4
-1349.81
-31952
-1360.85
-31678.4
-1371.74
-31402.6
-1382.48
-31124.8
-1393.07
-30844.9
-1403.51
-30562.9
-1413.81
-30278.9
-1423.96
-29992.9
-1433.96
-29704.9
-1443.82
-29415.1
-1453.54
-29123.3
-1463.11
-28829.6
-1472.54
-28534.1
-1481.83
-28236.7
-1490.98
-27937.6
-1499.99
-27636.7
-1508.86
-27334.1
-1517.59
-27029.7
-1526.18
-26723.7
-1534.64
-26416
-1542.96
-26106.6
-1551.14
-25795.7
-1559.19
-25483.2
-1567.11
-25169.2
-1574.9
-24853.6
-1582.55
-24536.5
-1590.08
-24218
-1597.47
-23898
-1604.73
-23576.6
-1611.87
-23253.8
-1618.88
-22929.6
-1625.76
-22604.1
-1632.52
-22277.2
-1639.15
-21949.1
-1645.66
-21619.7
-1652.04
-21289
-1658.31
-20957.1
-1664.45
-20624
-1670.47
-20289.8
-1676.37
-19954.4
-1682.15
-19617.8
-1687.82
-19280.2
-1693.36
-18941.5
-1698.79
-18601.7
-1704.11
-18260.9
-1709.31
-17919.1
-1714.39
-17576.3
-1719.37
-17232.5
-1724.23
-16887.8
-1728.97
-16542.1
-1733.61
-16195.6
-1738.14
-15848.1
-1742.55
-15499.9
-1746.86
-15150.7
-1751.06
-14800.8
-1755.15
-14450.1
-1759.13
-14098.6
-1763.01
-13746.3
-1766.79
-13393.4
-1770.45
-13039.7
-1774.02
-12685.3
-1777.48
-12330.2
-1780.83
-11974.6
-1784.09
-11618.2
-1787.24
-11261.3
-1790.29
-10903.8
-1793.24
-10545.7
-1796.1
-10187.1
-1798.85
-9827.92
-1801.5
-9468.25
-1804.06
-9108.09
-1806.51
-8747.47
-1808.87
-8386.39
-1811.14
-8024.89
-1813.31
-7662.97
-1815.38
-7300.65
-1817.36
-6937.96
-1819.25
-6574.92
-1821.04
-6211.53
-1822.74
-5847.83
-1824.34
-5483.82
-1825.86
-5119.53
-1827.28
-4754.98
-1828.61
-4390.18
-1829.85
-4025.15
-1831
-3659.91
-1832.06
-3294.48
-1833.03
-2928.88
-1833.9
-2563.12
-1834.68
-2197.22
-1835.37
-1831.2
-1835.97
-1465.08
-1836.47
-1098.89
-1836.87
-732.627
-1837.18
-366.325
-1837.4
-1837.52
-718.814
4623.86
-1424.14
4515.3
-2104.68
4308.36
-2752.6
4036.89
-3364.09
3740.51
-3939.46
3455.11
-4482.17
3207.07
-4997.67
3010.38
-5492.14
2867.92
-5971.52
2774.34
-6440.86
2720.01
-6904.07
2694.08
-7363.91
2686.76
-7822.21
2690.25
-8280.03
2699.03
-8737.95
2709.56
-9196.19
2719.79
-9654.79
2728.64
-10113.7
2735.7
-10572.7
2740.86
-11031.7
2744.21
-11490.5
2745.87
-11949
2746.02
-12407
2744.8
-12864.3
2742.35
-13320.9
2738.78
-13776.5
2734.2
-14231
2728.7
-14684.4
2722.33
-15136.5
2715.18
-15587.1
2707.29
-16036.3
2698.7
-16483.9
2689.47
-16929.8
2679.62
-17373.9
2669.18
-17816.1
2658.19
-18256.4
2646.66
-18694.7
2634.62
-19130.8
2622.09
-19564.7
2609.08
-19996.4
2595.62
-20425.8
2581.71
-20852.7
2567.37
-21277.2
2552.6
-21699.1
2537.43
-22118.5
2521.87
-22535.1
2505.91
-22949.1
2489.57
-23360.2
2472.87
-23768.5
2455.79
-24173.9
2438.37
-24576.3
2420.6
-24975.8
2402.48
-25372.1
2384.03
-25765.3
2365.26
-26155.3
2346.16
-26542.1
2326.75
-26925.6
2307.03
-27305.8
2287
-27682.6
2266.68
-28055.9
2246.07
-28425.8
2225.17
-28792.1
2203.99
-29154.9
2182.54
-29514.1
2160.82
-29869.6
2138.83
-30221.4
2116.58
-30569.4
2094.09
-30913.7
2071.34
-31254.1
2048.35
-31590.7
2025.12
-31923.3
2001.66
-32252.1
1977.98
-32576.8
1954.07
-32897.5
1929.95
-33214.2
1905.61
-33526.8
1881.07
-33835.3
1856.32
-34139.6
1831.38
-34439.8
1806.25
-34735.7
1780.94
-35027.4
1755.44
-35314.8
1729.77
-35598
1703.93
-35876.8
1677.93
-36151.2
1651.76
-36421.3
1625.44
-36686.9
1598.97
-36948.2
1572.36
-37205