/*--------------------------------*- C++ -*----------------------------------*\
| =========                 |                                                 |
| \\      /  F ield         | OpenFOAM: The Open Source CFD Toolbox           |
|  \\    /   O peration     | Version:  2212                                  |
|   \\  /    A nd           | Website:  www.openfoam.com                      |
|    \\/     M anipulation  |                                                 |
\*---------------------------------------------------------------------------*/
FoamFile
{
    version     2.0;
    format      ascii;
    arch        "LSB;label=32;scalar=64";
    class       volScalarField;
    location    "830";
    object      p_rgh_0;
}
// * * * * * * * * * * * * * * * * * * * * * * * * * * * * * * * * * * * * * //

dimensions      [1 -1 -2 0 0 0 0];

internalField   nonuniform List<scalar> 
204800
(
50.9508
50.9517
50.9496
50.9447
50.9376
50.9284
50.9169
50.9032
50.8872
50.869
50.8486
50.8261
50.8016
50.7752
50.7468
50.7166
50.6845
50.6506
50.6149
50.5774
50.5382
50.4972
50.4545
50.4102
50.3642
50.3165
50.2672
50.2163
50.1638
50.1097
50.0541
49.9969
49.9383
49.8781
49.8165
49.7535
49.6891
49.6233
49.5562
49.4877
49.418
49.347
49.2748
49.2014
49.1268
49.051
48.9742
48.8963
48.8173
48.7372
48.6562
48.5742
48.4913
48.4075
48.3229
48.2374
48.151
48.064
47.9762
47.8877
47.7985
47.7087
47.6184
47.5274
47.4359
47.3439
47.2514
47.1585
47.0652
46.9715
46.8775
46.7832
46.6886
46.5937
46.4986
46.4034
46.308
46.2124
46.1168
46.0211
45.9255
45.8298
45.7341
45.6385
45.543
45.4476
45.3524
45.2574
45.1626
45.068
44.9736
44.8796
44.7859
44.6925
44.5995
44.507
44.4148
44.3231
44.2318
44.141
44.0508
43.9611
43.8719
43.7834
43.6954
43.6081
43.5214
43.4354
43.3501
43.2655
43.1816
43.0984
43.016
42.9344
42.8535
42.7735
42.6943
42.6159
42.5383
42.4617
42.3858
42.3109
42.2369
42.1638
42.0916
42.0203
41.95
41.8806
41.8122
41.7448
41.6783
41.6128
41.5483
41.4847
41.4222
41.3607
41.3002
41.2407
41.1822
41.1247
41.0683
41.0128
40.9584
40.905
40.8527
40.8014
40.7511
40.7018
40.6535
40.6063
40.5601
40.5149
40.4707
40.4276
40.3854
40.3443
40.3042
40.2651
40.2269
40.1898
40.1536
40.1184
40.0842
40.051
40.0187
39.9874
39.957
39.9275
39.899
39.8714
39.8447
39.819
39.7941
39.7701
39.747
39.7248
39.7034
39.6829
39.6632
39.6443
39.6263
39.6091
39.5927
39.5771
39.5622
39.5482
39.5349
39.5223
39.5105
39.4994
39.489
39.4793
39.4703
39.462
39.4544
39.4474
39.4411
39.4353
39.4303
39.4258
39.4219
39.4186
39.4159
39.4137
39.4121
39.411
39.4105
39.4104
39.4109
39.4118
39.4133
39.4152
39.4175
39.4203
39.4235
39.4271
39.4311
39.4356
39.4404
39.4455
39.4511
39.4569
39.4632
39.4697
39.4765
39.4837
39.4911
39.4988
39.5068
39.5151
39.5236
39.5323
39.5412
39.5504
39.5597
39.5693
39.579
39.5889
39.599
39.6092
39.6196
39.63
39.6407
39.6514
39.6622
39.6731
39.6841
39.6952
39.7063
39.7175
39.7288
39.7401
39.7514
39.7627
39.7741
39.7854
39.7968
39.8081
39.8194
39.8307
39.842
39.8532
39.8644
39.8755
39.8865
39.8975
39.9084
39.9193
39.93
39.9406
39.9511
39.9616
39.9719
39.982
39.9921
40.002
40.0118
40.0214
40.0309
40.0402
40.0494
40.0584
40.0673
40.0759
40.0844
40.0927
40.1008
40.1087
40.1164
40.124
40.1313
40.1384
40.1453
40.1519
40.1584
40.1646
40.1707
40.1764
40.182
40.1873
40.1924
40.1972
40.2018
40.2062
40.2103
40.2142
40.2178
40.2212
40.2243
40.2271
40.2298
40.2321
40.2342
40.236
40.2376
40.2389
40.24
40.2407
40.2413
40.2415
50.8698
50.868
50.8635
50.8564
50.847
50.8356
50.8223
50.807
50.7898
50.7707
50.7498
50.7269
50.7022
50.6756
50.6472
50.6169
50.5848
50.5509
50.5152
50.4778
50.4386
50.3977
50.3551
50.3108
50.2649
50.2173
50.1681
50.1172
50.0648
50.0108
49.9553
49.8983
49.8397
49.7797
49.7182
49.6553
49.5909
49.5253
49.4583
49.3899
49.3203
49.2495
49.1774
49.1041
49.0296
48.954
48.8773
48.7995
48.7207
48.6408
48.5599
48.4781
48.3953
48.3117
48.2272
48.1418
48.0557
47.9688
47.8811
47.7928
47.7038
47.6142
47.5239
47.4332
47.3418
47.25
47.1577
47.065
46.9718
46.8783
46.7845
46.6903
46.5959
46.5012
46.4063
46.3112
46.2159
46.1206
46.0252
45.9297
45.8341
45.7386
45.6431
45.5477
45.4524
45.3572
45.2622
45.1673
45.0726
44.9782
44.8841
44.7902
44.6967
44.6035
44.5107
44.4183
44.3263
44.2347
44.1436
44.053
43.9629
43.8734
43.7844
43.696
43.6083
43.5211
43.4346
43.3487
43.2636
43.1791
43.0953
43.0123
42.9301
42.8486
42.7679
42.688
42.609
42.5307
42.4533
42.3768
42.3011
42.2264
42.1525
42.0795
42.0074
41.9363
41.8661
41.7969
41.7286
41.6613
41.5949
41.5295
41.4652
41.4018
41.3393
41.2779
41.2175
41.1582
41.0998
41.0424
40.9861
40.9308
40.8765
40.8232
40.7709
40.7197
40.6695
40.6203
40.5722
40.525
40.4789
40.4338
40.3897
40.3467
40.3046
40.2636
40.2235
40.1845
40.1464
40.1093
40.0733
40.0381
40.004
39.9708
39.9386
39.9073
39.877
39.8476
39.8192
39.7916
39.765
39.7393
39.7145
39.6905
39.6675
39.6453
39.624
39.6035
39.5839
39.5651
39.5471
39.5299
39.5135
39.4979
39.4831
39.4691
39.4558
39.4433
39.4315
39.4204
39.4101
39.4004
39.3914
39.3832
39.3755
39.3686
39.3623
39.3566
39.3515
39.347
39.3432
39.3399
39.3372
39.335
39.3334
39.3323
39.3318
39.3318
39.3322
39.3332
39.3346
39.3365
39.3388
39.3416
39.3448
39.3485
39.3525
39.3569
39.3617
39.3669
39.3724
39.3783
39.3845
39.391
39.3978
39.405
39.4124
39.4201
39.4281
39.4363
39.4448
39.4535
39.4624
39.4716
39.4809
39.4905
39.5002
39.5101
39.5201
39.5303
39.5407
39.5511
39.5617
39.5724
39.5832
39.5941
39.6051
39.6162
39.6273
39.6385
39.6497
39.661
39.6723
39.6836
39.6949
39.7063
39.7176
39.7289
39.7402
39.7515
39.7628
39.774
39.7851
39.7962
39.8072
39.8182
39.8291
39.8399
39.8506
39.8612
39.8717
39.8821
39.8924
39.9026
39.9126
39.9225
39.9323
39.9419
39.9514
39.9607
39.9698
39.9788
39.9876
39.9963
40.0048
40.013
40.0211
40.029
40.0367
40.0443
40.0516
40.0586
40.0655
40.0722
40.0786
40.0849
40.0909
40.0966
40.1022
40.1075
40.1126
40.1174
40.122
40.1264
40.1305
40.1343
40.1379
40.1413
40.1444
40.1473
40.1499
40.1522
40.1543
40.1561
40.1577
40.159
40.1601
40.1608
40.1614
40.1616
50.8533
50.8508
50.846
50.8388
50.8294
50.818
50.8047
50.7894
50.7722
50.7531
50.7321
50.7092
50.6844
50.6578
50.6294
50.5991
50.5669
50.533
50.4973
50.4598
50.4206
50.3797
50.3371
50.2928
50.2468
50.1992
50.15
50.0992
50.0467
49.9927
49.9372
49.8801
49.8216
49.7615
49.7
49.6371
49.5728
49.5071
49.4401
49.3718
49.3022
49.2313
49.1592
49.0859
49.0115
48.9359
48.8591
48.7814
48.7025
48.6226
48.5417
48.4599
48.3772
48.2935
48.209
48.1236
48.0375
47.9506
47.8629
47.7746
47.6856
47.596
47.5058
47.415
47.3237
47.2318
47.1395
47.0468
46.9537
46.8602
46.7663
46.6721
46.5777
46.483
46.3881
46.293
46.1978
46.1025
46.007
45.9115
45.816
45.7205
45.625
45.5296
45.4343
45.3391
45.2441
45.1492
45.0546
44.9602
44.866
44.7722
44.6787
44.5855
44.4927
44.4003
44.3083
44.2167
44.1256
44.0351
43.945
43.8555
43.7665
43.6781
43.5903
43.5032
43.4167
43.3308
43.2457
43.1612
43.0775
42.9945
42.9123
42.8308
42.7501
42.6702
42.5912
42.5129
42.4356
42.359
42.2834
42.2086
42.1348
42.0618
41.9898
41.9186
41.8485
41.7792
41.711
41.6437
41.5773
41.512
41.4476
41.3842
41.3218
41.2604
41.2
41.1406
41.0823
41.0249
40.9686
40.9133
40.859
40.8058
40.7535
40.7023
40.6521
40.603
40.5548
40.5077
40.4616
40.4165
40.3725
40.3294
40.2874
40.2463
40.2063
40.1673
40.1292
40.0922
40.0561
40.021
39.9869
39.9537
39.9215
39.8902
39.8599
39.8306
39.8021
39.7746
39.748
39.7223
39.6975
39.6736
39.6505
39.6283
39.607
39.5866
39.5669
39.5481
39.5302
39.513
39.4967
39.4811
39.4663
39.4523
39.439
39.4265
39.4147
39.4036
39.3933
39.3837
39.3747
39.3664
39.3588
39.3519
39.3456
39.3399
39.3348
39.3304
39.3265
39.3232
39.3205
39.3184
39.3168
39.3157
39.3152
39.3152
39.3157
39.3166
39.3181
39.32
39.3223
39.3251
39.3283
39.3319
39.336
39.3404
39.3452
39.3504
39.3559
39.3618
39.368
39.3745
39.3814
39.3885
39.396
39.4037
39.4117
39.4199
39.4284
39.4371
39.446
39.4552
39.4645
39.4741
39.4838
39.4937
39.5038
39.514
39.5243
39.5348
39.5454
39.5561
39.5669
39.5778
39.5888
39.5999
39.611
39.6222
39.6334
39.6447
39.656
39.6673
39.6786
39.69
39.7013
39.7126
39.724
39.7352
39.7465
39.7577
39.7688
39.7799
39.791
39.8019
39.8128
39.8236
39.8343
39.845
39.8555
39.8659
39.8762
39.8863
39.8964
39.9063
39.916
39.9257
39.9351
39.9445
39.9536
39.9626
39.9714
39.9801
39.9885
39.9968
40.0049
40.0128
40.0205
40.028
40.0353
40.0424
40.0493
40.056
40.0624
40.0687
40.0747
40.0804
40.086
40.0913
40.0964
40.1012
40.1058
40.1101
40.1143
40.1181
40.1217
40.1251
40.1282
40.1311
40.1337
40.136
40.1381
40.1399
40.1415
40.1428
40.1438
40.1446
40.1452
40.1454
50.7781
50.7752
50.7696
50.7615
50.7511
50.7387
50.7244
50.7083
50.6903
50.6706
50.6492
50.6259
50.6009
50.5741
50.5454
50.515
50.4828
50.4489
50.4131
50.3756
50.3364
50.2955
50.2529
50.2086
50.1627
50.1151
50.0659
50.0151
49.9628
49.9088
49.8533
49.7963
49.7378
49.6778
49.6164
49.5535
49.4893
49.4237
49.3567
49.2885
49.219
49.1482
49.0762
49.003
48.9286
48.8531
48.7765
48.6987
48.62
48.5402
48.4594
48.3777
48.295
48.2115
48.127
48.0418
47.9558
47.869
47.7814
47.6932
47.6043
47.5148
47.4247
47.334
47.2428
47.1511
47.0589
46.9663
46.8733
46.7799
46.6861
46.5921
46.4978
46.4032
46.3084
46.2135
46.1184
46.0231
45.9278
45.8324
45.737
45.6417
45.5463
45.451
45.3558
45.2608
45.1658
45.0711
44.9766
44.8823
44.7883
44.6946
44.6012
44.5081
44.4154
44.3231
44.2312
44.1398
44.0489
43.9584
43.8685
43.7791
43.6902
43.6019
43.5143
43.4273
43.3409
43.2552
43.1701
43.0858
43.0022
42.9193
42.8372
42.7558
42.6752
42.5955
42.5165
42.4384
42.3611
42.2847
42.2092
42.1345
42.0608
41.9879
41.916
41.845
41.7749
41.7058
41.6376
41.5704
41.5042
41.4389
41.3746
41.3113
41.249
41.1878
41.1275
41.0682
41.0099
40.9527
40.8964
40.8412
40.787
40.7338
40.6817
40.6306
40.5805
40.5314
40.4833
40.4363
40.3903
40.3453
40.3013
40.2583
40.2163
40.1754
40.1354
40.0964
40.0585
40.0215
39.9855
39.9504
39.9164
39.8833
39.8511
39.82
39.7897
39.7604
39.732
39.7045
39.678
39.6523
39.6276
39.6037
39.5807
39.5586
39.5373
39.5169
39.4973
39.4786
39.4607
39.4435
39.4272
39.4117
39.3969
39.383
39.3697
39.3573
39.3455
39.3345
39.3242
39.3146
39.3056
39.2974
39.2898
39.2829
39.2766
39.271
39.2659
39.2615
39.2577
39.2544
39.2517
39.2496
39.248
39.247
39.2465
39.2465
39.247
39.2479
39.2494
39.2513
39.2537
39.2565
39.2597
39.2634
39.2674
39.2718
39.2767
39.2818
39.2874
39.2933
39.2995
39.306
39.3129
39.32
39.3275
39.3352
39.3432
39.3514
39.3599
39.3686
39.3776
39.3867
39.3961
39.4056
39.4153
39.4252
39.4353
39.4455
39.4558
39.4663
39.4769
39.4876
39.4984
39.5093
39.5203
39.5314
39.5425
39.5537
39.5649
39.5762
39.5875
39.5988
39.6101
39.6214
39.6328
39.6441
39.6554
39.6667
39.6779
39.6891
39.7002
39.7113
39.7224
39.7333
39.7442
39.755
39.7657
39.7763
39.7868
39.7972
39.8075
39.8177
39.8277
39.8376
39.8473
39.857
39.8664
39.8757
39.8849
39.8939
39.9027
39.9113
39.9198
39.9281
39.9362
39.9441
39.9518
39.9593
39.9665
39.9736
39.9805
39.9872
39.9936
39.9998
40.0058
40.0116
40.0171
40.0225
40.0275
40.0324
40.0369
40.0413
40.0454
40.0493
40.0529
40.0562
40.0593
40.0622
40.0648
40.0671
40.0692
40.071
40.0726
40.0739
40.075
40.0758
40.0763
40.0765
50.7488
50.7461
50.7405
50.7326
50.7223
50.7101
50.6958
50.6797
50.6618
50.6421
50.6206
50.5973
50.5722
50.5453
50.5166
50.4862
50.4539
50.4199
50.3841
50.3466
50.3073
50.2664
50.2237
50.1794
50.1334
50.0858
50.0366
49.9858
49.9334
49.8794
49.8239
49.7669
49.7084
49.6483
49.5869
49.524
49.4598
49.3941
49.3272
49.2589
49.1894
49.1186
49.0466
48.9733
48.899
48.8234
48.7468
48.6691
48.5903
48.5105
48.4297
48.348
48.2653
48.1817
48.0973
48.012
47.926
47.8392
47.7516
47.6634
47.5745
47.485
47.3949
47.3042
47.213
47.1212
47.0291
46.9364
46.8434
46.75
46.6563
46.5622
46.4679
46.3733
46.2785
46.1836
46.0885
45.9932
45.8979
45.8026
45.7072
45.6118
45.5164
45.4211
45.3259
45.2309
45.136
45.0412
44.9467
44.8524
44.7584
44.6647
44.5713
44.4782
44.3856
44.2933
44.2014
44.11
44.019
43.9286
43.8386
43.7493
43.6604
43.5722
43.4845
43.3975
43.3111
43.2254
43.1404
43.0561
42.9725
42.8896
42.8075
42.7261
42.6456
42.5658
42.4869
42.4088
42.3316
42.2552
42.1796
42.105
42.0313
41.9584
41.8865
41.8155
41.7455
41.6764
41.6082
41.541
41.4748
41.4096
41.3453
41.282
41.2198
41.1585
41.0982
41.039
40.9807
40.9235
40.8673
40.8121
40.7579
40.7048
40.6526
40.6015
40.5514
40.5024
40.4543
40.4073
40.3613
40.3164
40.2724
40.2295
40.1875
40.1466
40.1066
40.0677
40.0297
39.9928
39.9568
39.9218
39.8878
39.8547
39.8226
39.7914
39.7612
39.7319
39.7036
39.6761
39.6496
39.624
39.5992
39.5754
39.5524
39.5303
39.5091
39.4887
39.4691
39.4504
39.4325
39.4154
39.3991
39.3836
39.3689
39.3549
39.3417
39.3293
39.3176
39.3066
39.2963
39.2867
39.2778
39.2696
39.262
39.2551
39.2488
39.2432
39.2382
39.2338
39.23
39.2268
39.2241
39.222
39.2205
39.2194
39.2189
39.2189
39.2195
39.2205
39.2219
39.2239
39.2262
39.2291
39.2323
39.236
39.24
39.2445
39.2493
39.2545
39.2601
39.266
39.2722
39.2788
39.2857
39.2928
39.3003
39.308
39.316
39.3243
39.3328
39.3415
39.3504
39.3596
39.369
39.3785
39.3883
39.3982
39.4082
39.4185
39.4288
39.4393
39.4499
39.4606
39.4715
39.4824
39.4934
39.5044
39.5156
39.5268
39.538
39.5493
39.5606
39.5719
39.5832
39.5946
39.6059
39.6172
39.6286
39.6398
39.6511
39.6623
39.6734
39.6845
39.6956
39.7065
39.7174
39.7282
39.7389
39.7496
39.7601
39.7705
39.7808
39.7909
39.801
39.8109
39.8206
39.8303
39.8397
39.849
39.8582
39.8672
39.876
39.8846
39.8931
39.9014
39.9095
39.9174
39.9251
39.9326
39.9399
39.947
39.9539
39.9605
39.967
39.9732
39.9792
39.985
39.9905
39.9958
40.0009
40.0057
40.0103
40.0147
40.0188
40.0226
40.0262
40.0296
40.0327
40.0356
40.0382
40.0405
40.0426
40.0444
40.046
40.0473
40.0484
40.0491
40.0497
40.0499
50.68
50.6772
50.6714
50.6632
50.6526
50.6398
50.6251
50.6086
50.5903
50.5702
50.5483
50.5248
50.4994
50.4724
50.4435
50.4129
50.3806
50.3464
50.3106
50.273
50.2337
50.1927
50.1501
50.1057
50.0598
50.0122
49.9629
49.9121
49.8597
49.8058
49.7503
49.6933
49.6347
49.5748
49.5133
49.4505
49.3863
49.3207
49.2537
49.1855
49.116
49.0452
48.9733
48.9001
48.8257
48.7503
48.6737
48.596
48.5173
48.4375
48.3568
48.2751
48.1925
48.109
48.0246
47.9394
47.8534
47.7666
47.6792
47.591
47.5022
47.4127
47.3226
47.232
47.1409
47.0492
46.9571
46.8645
46.7716
46.6782
46.5846
46.4906
46.3963
46.3018
46.2071
46.1122
46.0172
45.922
45.8268
45.7315
45.6362
45.5409
45.4456
45.3504
45.2553
45.1603
45.0654
44.9708
44.8764
44.7821
44.6882
44.5946
44.5013
44.4083
44.3157
44.2235
44.1317
44.0403
43.9495
43.8591
43.7693
43.6799
43.5912
43.503
43.4155
43.3285
43.2422
43.1566
43.0717
42.9874
42.9039
42.8211
42.7391
42.6578
42.5774
42.4977
42.4188
42.3408
42.2637
42.1873
42.1119
42.0373
41.9637
41.8909
41.8191
41.7482
41.6782
41.6092
41.5411
41.474
41.4079
41.3427
41.2785
41.2153
41.1531
41.092
41.0318
40.9726
40.9144
40.8573
40.8011
40.746
40.6919
40.6388
40.5868
40.5357
40.4857
40.4367
40.3888
40.3418
40.2959
40.251
40.2071
40.1642
40.1224
40.0815
40.0416
40.0027
39.9649
39.928
39.8921
39.8571
39.8231
39.7901
39.7581
39.727
39.6968
39.6676
39.6393
39.6119
39.5854
39.5599
39.5352
39.5114
39.4885
39.4664
39.4453
39.4249
39.4054
39.3867
39.3689
39.3518
39.3356
39.3201
39.3055
39.2915
39.2784
39.266
39.2543
39.2433
39.2331
39.2235
39.2147
39.2065
39.199
39.1921
39.1859
39.1803
39.1753
39.171
39.1672
39.164
39.1614
39.1593
39.1578
39.1568
39.1563
39.1564
39.1569
39.1579
39.1594
39.1614
39.1638
39.1666
39.1699
39.1736
39.1777
39.1821
39.187
39.1922
39.1978
39.2037
39.21
39.2166
39.2234
39.2306
39.2381
39.2459
39.2539
39.2621
39.2706
39.2794
39.2884
39.2975
39.3069
39.3165
39.3262
39.3362
39.3462
39.3565
39.3668
39.3773
39.3879
39.3987
39.4095
39.4204
39.4314
39.4425
39.4536
39.4648
39.4761
39.4874
39.4987
39.51
39.5214
39.5327
39.544
39.5554
39.5667
39.578
39.5892
39.6004
39.6116
39.6227
39.6337
39.6447
39.6556
39.6664
39.6771
39.6877
39.6982
39.7086
39.7189
39.7291
39.7391
39.749
39.7588
39.7684
39.7779
39.7872
39.7964
39.8054
39.8142
39.8228
39.8313
39.8396
39.8477
39.8556
39.8633
39.8708
39.8781
39.8852
39.892
39.8987
39.9051
39.9114
39.9174
39.9231
39.9287
39.934
39.9391
39.9439
39.9485
39.9528
39.9569
39.9608
39.9644
39.9678
39.9709
39.9737
39.9763
39.9787
39.9808
39.9826
39.9842
39.9855
39.9865
39.9873
39.9878
39.9881
50.6433
50.6406
50.6349
50.6269
50.6164
50.6038
50.5892
50.5727
50.5544
50.5344
50.5125
50.4889
50.4635
50.4364
50.4075
50.3768
50.3443
50.3102
50.2742
50.2366
50.1972
50.1562
50.1135
50.0691
50.0231
49.9754
49.9262
49.8753
49.8229
49.7689
49.7133
49.6563
49.5977
49.5377
49.4763
49.4134
49.3491
49.2835
49.2165
49.1483
49.0787
49.008
48.9359
48.8627
48.7884
48.7129
48.6362
48.5585
48.4798
48.4
48.3192
48.2375
48.1549
48.0713
47.9869
47.9017
47.8157
47.7289
47.6414
47.5532
47.4644
47.3749
47.2848
47.1942
47.103
47.0113
46.9192
46.8266
46.7336
46.6403
46.5466
46.4526
46.3583
46.2638
46.1691
46.0742
45.9791
45.8839
45.7887
45.6934
45.598
45.5027
45.4074
45.3122
45.2171
45.1221
45.0272
44.9326
44.8381
44.7439
44.65
44.5563
44.463
44.37
44.2774
44.1852
44.0934
44.0021
43.9112
43.8209
43.731
43.6417
43.5529
43.4648
43.3772
43.2903
43.204
43.1184
43.0334
42.9492
42.8657
42.7829
42.7009
42.6196
42.5392
42.4595
42.3807
42.3027
42.2255
42.1492
42.0738
41.9993
41.9256
41.8529
41.7811
41.7102
41.6402
41.5712
41.5032
41.4361
41.37
41.3048
41.2407
41.1775
41.1154
41.0542
40.994
40.9349
40.8767
40.8196
40.7635
40.7084
40.6543
40.6013
40.5493
40.4983
40.4483
40.3993
40.3514
40.3045
40.2586
40.2137
40.1699
40.127
40.0852
40.0443
40.0045
39.9657
39.9278
39.8909
39.8551
39.8202
39.7862
39.7532
39.7212
39.6902
39.66
39.6308
39.6026
39.5752
39.5488
39.5233
39.4986
39.4749
39.452
39.43
39.4088
39.3885
39.3691
39.3504
39.3326
39.3156
39.2994
39.284
39.2693
39.2554
39.2423
39.2299
39.2183
39.2074
39.1972
39.1877
39.1788
39.1707
39.1632
39.1564
39.1502
39.1446
39.1397
39.1353
39.1316
39.1284
39.1258
39.1238
39.1223
39.1214
39.1209
39.121
39.1216
39.1226
39.1241
39.1261
39.1286
39.1314
39.1347
39.1385
39.1426
39.1471
39.152
39.1572
39.1628
39.1688
39.1751
39.1817
39.1886
39.1958
39.2033
39.2111
39.2191
39.2274
39.2359
39.2447
39.2537
39.2629
39.2723
39.2819
39.2916
39.3016
39.3117
39.3219
39.3323
39.3428
39.3535
39.3642
39.3751
39.386
39.397
39.4081
39.4193
39.4305
39.4418
39.4531
39.4644
39.4757
39.4871
39.4985
39.5098
39.5212
39.5325
39.5438
39.5551
39.5663
39.5774
39.5886
39.5996
39.6106
39.6215
39.6323
39.643
39.6537
39.6642
39.6746
39.6849
39.6951
39.7051
39.715
39.7248
39.7344
39.7439
39.7532
39.7624
39.7714
39.7802
39.7889
39.7974
39.8056
39.8137
39.8216
39.8294
39.8369
39.8442
39.8513
39.8582
39.8648
39.8713
39.8775
39.8835
39.8893
39.8948
39.9001
39.9052
39.9101
39.9147
39.919
39.9231
39.927
39.9306
39.934
39.9371
39.9399
39.9425
39.9449
39.947
39.9488
39.9503
39.9517
39.9527
39.9535
39.954
39.9543
50.5798
50.577
50.5713
50.5632
50.5526
50.5398
50.525
50.5084
50.4899
50.4696
50.4475
50.4237
50.3982
50.3709
50.3418
50.311
50.2784
50.2441
50.2081
50.1704
50.131
50.0899
50.0471
50.0027
49.9567
49.909
49.8597
49.8088
49.7563
49.7023
49.6468
49.5897
49.5311
49.4711
49.4096
49.3467
49.2825
49.2168
49.1499
49.0816
49.0121
48.9413
48.8693
48.7961
48.7217
48.6462
48.5696
48.4919
48.4132
48.3334
48.2527
48.1709
48.0883
48.0048
47.9204
47.8352
47.7492
47.6624
47.575
47.4868
47.3979
47.3085
47.2184
47.1278
47.0366
46.945
46.8529
46.7603
46.6674
46.5741
46.4804
46.3864
46.2922
46.1977
46.103
46.0081
45.9131
45.818
45.7227
45.6275
45.5322
45.4369
45.3416
45.2464
45.1513
45.0564
44.9616
44.8669
44.7725
44.6784
44.5845
44.4909
44.3976
44.3046
44.2121
44.1199
44.0282
43.9369
43.8461
43.7557
43.6659
43.5767
43.488
43.3999
43.3124
43.2255
43.1392
43.0537
42.9688
42.8846
42.8011
42.7184
42.6365
42.5553
42.4749
42.3953
42.3165
42.2385
42.1614
42.0852
42.0098
41.9354
41.8618
41.7891
41.7173
41.6465
41.5766
41.5077
41.4397
41.3727
41.3066
41.2415
41.1774
41.1143
41.0522
40.9911
40.931
40.8719
40.8139
40.7568
40.7007
40.6457
40.5917
40.5387
40.4868
40.4358
40.3859
40.337
40.2892
40.2423
40.1965
40.1517
40.1079
40.0651
40.0233
39.9825
39.9428
39.904
39.8662
39.8294
39.7936
39.7587
39.7249
39.692
39.66
39.629
39.5989
39.5698
39.5416
39.5143
39.4879
39.4624
39.4379
39.4142
39.3914
39.3694
39.3483
39.3281
39.3086
39.2901
39.2723
39.2553
39.2392
39.2238
39.2092
39.1954
39.1823
39.17
39.1584
39.1475
39.1374
39.1279
39.1191
39.111
39.1036
39.0968
39.0907
39.0852
39.0803
39.076
39.0723
39.0692
39.0666
39.0646
39.0632
39.0622
39.0618
39.062
39.0626
39.0637
39.0652
39.0672
39.0697
39.0726
39.076
39.0797
39.0839
39.0884
39.0933
39.0986
39.1042
39.1102
39.1165
39.1232
39.1301
39.1374
39.1449
39.1527
39.1607
39.1691
39.1776
39.1864
39.1954
39.2047
39.2141
39.2237
39.2335
39.2435
39.2536
39.2639
39.2743
39.2848
39.2955
39.3062
39.3171
39.3281
39.3391
39.3502
39.3614
39.3726
39.3839
39.3952
39.4065
39.4179
39.4293
39.4407
39.452
39.4634
39.4747
39.486
39.4973
39.5086
39.5197
39.5309
39.5419
39.5529
39.5638
39.5747
39.5854
39.596
39.6066
39.617
39.6273
39.6375
39.6475
39.6575
39.6672
39.6769
39.6864
39.6957
39.7049
39.7139
39.7227
39.7314
39.7398
39.7481
39.7562
39.7641
39.7719
39.7794
39.7867
39.7938
39.8007
39.8073
39.8138
39.82
39.826
39.8318
39.8374
39.8427
39.8478
39.8526
39.8572
39.8616
39.8657
39.8695
39.8732
39.8765
39.8796
39.8825
39.8851
39.8874
39.8895
39.8914
39.8929
39.8942
39.8953
39.8961
39.8966
39.8969
50.5382
50.5356
50.53
50.522
50.5115
50.4989
50.4843
50.4677
50.4492
50.429
50.4069
50.3831
50.3575
50.3301
50.301
50.2701
50.2375
50.2031
50.167
50.1292
50.0897
50.0486
50.0058
49.9613
49.9151
49.8674
49.818
49.7671
49.7146
49.6605
49.6049
49.5478
49.4891
49.4291
49.3675
49.3046
49.2403
49.1746
49.1076
49.0393
48.9697
48.8989
48.8268
48.7536
48.6792
48.6036
48.5269
48.4492
48.3704
48.2906
48.2098
48.128
48.0454
47.9618
47.8774
47.7921
47.7061
47.6193
47.5317
47.4435
47.3547
47.2651
47.175
47.0844
46.9932
46.9015
46.8093
46.7168
46.6238
46.5304
46.4367
46.3427
46.2484
46.1539
46.0592
45.9643
45.8692
45.774
45.6788
45.5835
45.4881
45.3928
45.2975
45.2023
45.1072
45.0122
44.9174
44.8227
44.7283
44.6341
44.5402
44.4466
44.3533
44.2603
44.1677
44.0756
43.9838
43.8925
43.8017
43.7113
43.6215
43.5322
43.4435
43.3554
43.2679
43.181
43.0948
43.0092
42.9243
42.8401
42.7567
42.674
42.592
42.5108
42.4304
42.3508
42.2721
42.1941
42.117
42.0408
41.9654
41.891
41.8174
41.7447
41.673
41.6022
41.5323
41.4634
41.3954
41.3284
41.2624
41.1973
41.1333
41.0702
41.0081
40.947
40.887
40.8279
40.7698
40.7128
40.6568
40.6018
40.5478
40.4949
40.4429
40.392
40.3422
40.2933
40.2455
40.1987
40.1529
40.1081
40.0643
40.0216
39.9798
39.9391
39.8994
39.8606
39.8229
39.7861
39.7504
39.7156
39.6817
39.6489
39.617
39.586
39.556
39.5269
39.4987
39.4715
39.4452
39.4197
39.3952
39.3715
39.3488
39.3269
39.3058
39.2856
39.2662
39.2477
39.23
39.2131
39.197
39.1817
39.1671
39.1533
39.1403
39.128
39.1165
39.1057
39.0955
39.0861
39.0774
39.0693
39.0619
39.0552
39.0491
39.0436
39.0388
39.0345
39.0309
39.0278
39.0253
39.0233
39.0219
39.0211
39.0207
39.0209
39.0215
39.0227
39.0243
39.0263
39.0288
39.0318
39.0352
39.039
39.0431
39.0477
39.0527
39.058
39.0637
39.0697
39.076
39.0827
39.0897
39.097
39.1045
39.1124
39.1205
39.1288
39.1374
39.1462
39.1553
39.1645
39.174
39.1836
39.1935
39.2035
39.2136
39.2239
39.2344
39.2449
39.2556
39.2664
39.2773
39.2883
39.2993
39.3105
39.3217
39.3329
39.3442
39.3556
39.3669
39.3783
39.3897
39.4011
39.4125
39.4239
39.4353
39.4466
39.4579
39.4692
39.4804
39.4915
39.5026
39.5136
39.5245
39.5354
39.5461
39.5568
39.5673
39.5778
39.5881
39.5983
39.6084
39.6183
39.6281
39.6377
39.6472
39.6566
39.6658
39.6748
39.6836
39.6923
39.7008
39.7091
39.7172
39.7251
39.7329
39.7404
39.7477
39.7548
39.7617
39.7684
39.7749
39.7811
39.7871
39.7929
39.7984
39.8038
39.8089
39.8137
39.8183
39.8227
39.8268
39.8307
39.8343
39.8376
39.8408
39.8436
39.8462
39.8486
39.8507
39.8525
39.8541
39.8554
39.8564
39.8572
39.8577
39.858
50.4787
50.476
50.4704
50.4625
50.452
50.4394
50.4247
50.408
50.3895
50.3691
50.3469
50.3229
50.2972
50.2697
50.2404
50.2094
50.1767
50.1422
50.1061
50.0682
50.0286
49.9874
49.9445
49.8999
49.8538
49.806
49.7565
49.7055
49.653
49.5988
49.5432
49.486
49.4273
49.3672
49.3057
49.2427
49.1783
49.1126
49.0456
48.9773
48.9076
48.8368
48.7647
48.6914
48.617
48.5414
48.4647
48.3869
48.3081
48.2283
48.1474
48.0657
47.983
47.8994
47.8149
47.7297
47.6436
47.5568
47.4692
47.381
47.2921
47.2026
47.1125
47.0218
46.9306
46.8389
46.7467
46.6541
46.5611
46.4677
46.374
46.28
46.1857
46.0912
45.9964
45.9015
45.8064
45.7113
45.616
45.5207
45.4254
45.33
45.2348
45.1395
45.0444
44.9494
44.8546
44.76
44.6656
44.5714
44.4775
44.3838
44.2905
44.1976
44.105
44.0129
43.9211
43.8298
43.739
43.6487
43.5589
43.4697
43.381
43.2929
43.2054
43.1185
43.0323
42.9467
42.8619
42.7777
42.6943
42.6116
42.5297
42.4485
42.3682
42.2886
42.2099
42.132
42.0549
41.9787
41.9034
41.829
41.7554
41.6828
41.6111
41.5404
41.4705
41.4016
41.3337
41.2668
41.2008
41.1358
41.0718
41.0087
40.9467
40.8857
40.8256
40.7666
40.7086
40.6516
40.5957
40.5407
40.4868
40.4339
40.3821
40.3312
40.2814
40.2326
40.1848
40.1381
40.0923
40.0476
40.0039
39.9612
39.9196
39.8789
39.8392
39.8005
39.7629
39.7262
39.6904
39.6557
39.6219
39.5891
39.5573
39.5264
39.4964
39.4674
39.4393
39.4121
39.3858
39.3605
39.336
39.3124
39.2897
39.2679
39.2469
39.2267
39.2074
39.189
39.1713
39.1545
39.1384
39.1231
39.1087
39.0949
39.082
39.0697
39.0583
39.0475
39.0374
39.0281
39.0194
39.0114
39.0041
38.9974
38.9913
38.9859
38.9811
38.9769
38.9733
38.9703
38.9679
38.966
38.9646
38.9638
38.9635
38.9637
38.9644
38.9656
38.9672
38.9693
38.9719
38.9749
38.9783
38.9822
38.9864
38.991
38.996
39.0014
39.0071
39.0132
39.0195
39.0263
39.0333
39.0406
39.0482
39.0561
39.0642
39.0726
39.0812
39.0901
39.0992
39.1085
39.118
39.1276
39.1375
39.1475
39.1577
39.168
39.1785
39.1891
39.1998
39.2107
39.2216
39.2326
39.2437
39.2549
39.2661
39.2774
39.2887
39.3001
39.3114
39.3229
39.3343
39.3457
39.3571
39.3685
39.3799
39.3913
39.4026
39.4139
39.4251
39.4362
39.4473
39.4584
39.4693
39.4802
39.491
39.5016
39.5122
39.5227
39.533
39.5432
39.5533
39.5632
39.5731
39.5827
39.5922
39.6016
39.6108
39.6198
39.6287
39.6373
39.6458
39.6542
39.6623
39.6702
39.678
39.6855
39.6928
39.6999
39.7068
39.7135
39.72
39.7263
39.7323
39.7381
39.7436
39.749
39.754
39.7589
39.7635
39.7679
39.772
39.7759
39.7795
39.7829
39.786
39.7888
39.7915
39.7938
39.7959
39.7977
39.7993
39.8006
39.8017
39.8025
39.803
39.8032
50.4342
50.4315
50.4261
50.4182
50.4079
50.3954
50.3808
50.3643
50.3458
50.3254
50.3032
50.2792
50.2534
50.2259
50.1966
50.1655
50.1327
50.0982
50.0619
50.024
49.9843
49.943
49.9
49.8554
49.8091
49.7613
49.7118
49.6607
49.608
49.5538
49.4981
49.4409
49.3821
49.3219
49.2603
49.1973
49.1328
49.0671
48.9999
48.9315
48.8618
48.7909
48.7188
48.6454
48.5709
48.4953
48.4185
48.3407
48.2618
48.1819
48.101
48.0191
47.9364
47.8527
47.7682
47.6828
47.5967
47.5098
47.4222
47.3339
47.245
47.1554
47.0652
46.9745
46.8832
46.7914
46.6992
46.6065
46.5135
46.42
46.3263
46.2322
46.1378
46.0432
45.9484
45.8535
45.7584
45.6631
45.5678
45.4725
45.3771
45.2817
45.1864
45.0911
44.9959
44.9009
44.806
44.7114
44.6169
44.5227
44.4287
44.3351
44.2417
44.1488
44.0562
43.964
43.8722
43.7809
43.69
43.5997
43.5099
43.4206
43.3319
43.2438
43.1562
43.0694
42.9831
42.8976
42.8127
42.7285
42.6451
42.5624
42.4805
42.3993
42.3189
42.2394
42.1606
42.0827
42.0057
41.9295
41.8542
41.7798
41.7062
41.6336
41.5619
41.4912
41.4214
41.3525
41.2846
41.2176
41.1517
41.0867
41.0227
40.9597
40.8977
40.8367
40.7767
40.7177
40.6597
40.6028
40.5468
40.4919
40.438
40.3852
40.3333
40.2825
40.2328
40.184
40.1363
40.0895
40.0439
39.9992
39.9555
39.9129
39.8712
39.8306
39.791
39.7524
39.7147
39.6781
39.6424
39.6077
39.574
39.5413
39.5095
39.4786
39.4487
39.4197
39.3917
39.3646
39.3383
39.313
39.2886
39.2651
39.2424
39.2206
39.1997
39.1796
39.1604
39.1419
39.1244
39.1076
39.0916
39.0764
39.0619
39.0483
39.0354
39.0232
39.0118
39.0011
38.9911
38.9818
38.9731
38.9652
38.9579
38.9513
38.9453
38.9399
38.9352
38.9311
38.9275
38.9246
38.9222
38.9203
38.919
38.9182
38.918
38.9182
38.919
38.9202
38.9219
38.9241
38.9267
38.9298
38.9332
38.9371
38.9414
38.9461
38.9511
38.9566
38.9623
38.9684
38.9749
38.9816
38.9887
38.9961
39.0037
39.0116
39.0198
39.0282
39.0369
39.0458
39.0549
39.0643
39.0738
39.0835
39.0934
39.1035
39.1137
39.1241
39.1346
39.1452
39.156
39.1669
39.1778
39.1889
39.2
39.2112
39.2225
39.2338
39.2451
39.2565
39.268
39.2794
39.2908
39.3023
39.3137
39.3252
39.3366
39.348
39.3593
39.3706
39.3819
39.3931
39.4042
39.4152
39.4262
39.4371
39.4479
39.4586
39.4692
39.4797
39.49
39.5003
39.5104
39.5203
39.5302
39.5398
39.5494
39.5588
39.568
39.577
39.5859
39.5946
39.6031
39.6114
39.6196
39.6275
39.6353
39.6428
39.6502
39.6573
39.6642
39.6709
39.6774
39.6836
39.6897
39.6955
39.7011
39.7064
39.7115
39.7163
39.721
39.7253
39.7295
39.7333
39.737
39.7404
39.7435
39.7463
39.749
39.7513
39.7534
39.7552
39.7568
39.7581
39.7592
39.76
39.7605
39.7608
50.3776
50.375
50.3696
50.3618
50.3515
50.3391
50.3245
50.3079
50.2893
50.2689
50.2466
50.2226
50.1967
50.169
50.1396
50.1085
50.0755
50.0409
50.0046
49.9665
49.9268
49.8854
49.8424
49.7976
49.7513
49.7034
49.6538
49.6026
49.5499
49.4956
49.4398
49.3825
49.3237
49.2634
49.2017
49.1386
49.0741
49.0083
48.9411
48.8727
48.8029
48.7319
48.6597
48.5863
48.5117
48.436
48.3592
48.2813
48.2023
48.1224
48.0414
47.9595
47.8767
47.793
47.7084
47.623
47.5368
47.4499
47.3622
47.2739
47.1849
47.0952
47.005
46.9142
46.8229
46.7311
46.6388
46.5461
46.453
46.3595
46.2657
46.1715
46.0771
45.9825
45.8877
45.7927
45.6975
45.6022
45.5069
45.4115
45.3161
45.2207
45.1253
45.03
44.9348
44.8398
44.7449
44.6501
44.5557
44.4614
44.3674
44.2738
44.1804
44.0874
43.9948
43.9026
43.8108
43.7195
43.6286
43.5382
43.4484
43.3591
43.2704
43.1823
43.0948
43.0079
42.9216
42.8361
42.7512
42.6671
42.5836
42.5009
42.419
42.3378
42.2575
42.1779
42.0992
42.0213
41.9443
41.8681
41.7928
41.7184
41.6449
41.5724
41.5007
41.43
41.3602
41.2913
41.2235
41.1566
41.0906
41.0257
40.9617
40.8987
40.8368
40.7758
40.7159
40.6569
40.599
40.5421
40.4862
40.4313
40.3775
40.3247
40.2729
40.2221
40.1724
40.1237
40.076
40.0294
39.9837
39.9391
39.8955
39.8529
39.8113
39.7708
39.7312
39.6926
39.6551
39.6185
39.5829
39.5483
39.5146
39.4819
39.4502
39.4194