/*--------------------------------*- C++ -*----------------------------------*\
| =========                 |                                                 |
| \\      /  F ield         | OpenFOAM: The Open Source CFD Toolbox           |
|  \\    /   O peration     | Version:  2212                                  |
|   \\  /    A nd           | Website:  www.openfoam.com                      |
|    \\/     M anipulation  |                                                 |
\*---------------------------------------------------------------------------*/
FoamFile
{
    version     2.0;
    format      ascii;
    arch        "LSB;label=32;scalar=64";
    class       volScalarField;
    location    "830";
    object      p_rgh;
}
// * * * * * * * * * * * * * * * * * * * * * * * * * * * * * * * * * * * * * //

dimensions      [1 -1 -2 0 0 0 0];

internalField   nonuniform List<scalar> 
204800
(
50.9249
50.9253
50.9232
50.9188
50.9122
50.9032
50.8918
50.8782
50.8622
50.844
50.8237
50.8012
50.7768
50.7504
50.7221
50.692
50.66
50.6261
50.5905
50.5531
50.514
50.4731
50.4305
50.3862
50.3403
50.2927
50.2435
50.1927
50.1403
50.0863
50.0308
49.9738
49.9153
49.8553
49.7938
49.7309
49.6667
49.601
49.534
49.4657
49.3961
49.3253
49.2532
49.18
49.1056
49.03
48.9533
48.8756
48.7968
48.7169
48.6361
48.5543
48.4716
48.388
48.3035
48.2182
48.1321
48.0453
47.9577
47.8694
47.7804
47.6909
47.6007
47.5099
47.4187
47.3269
47.2346
47.142
47.0489
46.9554
46.8616
46.7675
46.6732
46.5786
46.4837
46.3887
46.2936
46.1983
46.1029
46.0075
45.9121
45.8166
45.7212
45.6259
45.5306
45.4355
45.3406
45.2458
45.1512
45.0569
44.9628
44.8691
44.7756
44.6825
44.5898
44.4975
44.4056
44.3141
44.2231
44.1326
44.0426
43.9532
43.8643
43.7761
43.6884
43.6013
43.5149
43.4292
43.3441
43.2597
43.1761
43.0932
43.0111
42.9297
42.8491
42.7694
42.6904
42.6123
42.535
42.4586
42.3831
42.3084
42.2347
42.1618
42.0899
42.0189
41.9488
41.8797
41.8116
41.7444
41.6782
41.6129
41.5487
41.4854
41.4231
41.3618
41.3016
41.2423
41.1841
41.1269
41.0707
41.0155
40.9613
40.9082
40.8561
40.805
40.7549
40.7059
40.6579
40.6109
40.5649
40.52
40.476
40.4331
40.3912
40.3503
40.3104
40.2715
40.2336
40.1966
40.1607
40.1257
40.0917
40.0587
40.0266
39.9955
39.9653
39.9361
39.9078
39.8804
39.8539
39.8283
39.8037
39.7799
39.757
39.7349
39.7137
39.6934
39.6739
39.6552
39.6374
39.6203
39.6041
39.5887
39.574
39.5601
39.547
39.5346
39.5229
39.512
39.5017
39.4922
39.4834
39.4752
39.4677
39.4609
39.4547
39.4491
39.4442
39.4399
39.4361
39.433
39.4304
39.4283
39.4269
39.4259
39.4255
39.4256
39.4261
39.4272
39.4288
39.4308
39.4332
39.4361
39.4394
39.4432
39.4473
39.4518
39.4567
39.462
39.4676
39.4736
39.4799
39.4865
39.4935
39.5007
39.5082
39.516
39.5241
39.5324
39.541
39.5498
39.5588
39.5681
39.5775
39.5871
39.5969
39.6069
39.617
39.6273
39.6377
39.6483
39.6589
39.6697
39.6806
39.6916
39.7026
39.7138
39.725
39.7362
39.7475
39.7588
39.7702
39.7816
39.793
39.8044
39.8158
39.8272
39.8385
39.8498
39.8611
39.8724
39.8836
39.8948
39.9058
39.9169
39.9278
39.9386
39.9494
39.9601
39.9706
39.9811
39.9914
40.0016
40.0117
40.0216
40.0314
40.0411
40.0506
40.0599
40.0691
40.0781
40.087
40.0957
40.1042
40.1125
40.1206
40.1285
40.1363
40.1438
40.1511
40.1582
40.1652
40.1718
40.1783
40.1846
40.1906
40.1964
40.2019
40.2073
40.2124
40.2172
40.2218
40.2262
40.2303
40.2342
40.2378
40.2412
40.2443
40.2472
40.2498
40.2521
40.2542
40.256
40.2576
40.2589
40.26
40.2608
40.2613
40.2616
50.8435
50.8418
50.8375
50.8308
50.8217
50.8105
50.7972
50.782
50.7648
50.7458
50.7249
50.7021
50.6774
50.6509
50.6225
50.5923
50.5603
50.5265
50.4909
50.4536
50.4144
50.3736
50.3311
50.2869
50.241
50.1935
50.1444
50.0937
50.0413
49.9875
49.9321
49.8752
49.8167
49.7568
49.6955
49.6327
49.5686
49.503
49.4362
49.368
49.2985
49.2278
49.1559
49.0828
49.0085
48.933
48.8565
48.7789
48.7002
48.6205
48.5399
48.4582
48.3757
48.2922
48.2079
48.1227
48.0368
47.9501
47.8627
47.7745
47.6857
47.5963
47.5063
47.4157
47.3246
47.233
47.1409
47.0484
46.9555
46.8622
46.7686
46.6747
46.5805
46.486
46.3914
46.2966
46.2016
46.1065
46.0113
45.916
45.8208
45.7255
45.6303
45.5351
45.44
45.3451
45.2503
45.1557
45.0613
44.9672
44.8733
44.7797
44.6864
44.5935
44.5009
44.4088
44.3171
44.2258
44.1349
44.0446
43.9548
43.8655
43.7768
43.6887
43.6012
43.5143
43.4281
43.3425
43.2576
43.1734
43.0899
43.0072
42.9252
42.844
42.7636
42.6839
42.6051
42.5272
42.45
42.3738
42.2984
42.2239
42.1502
42.0775
42.0057
41.9349
41.865
41.796
41.7279
41.6609
41.5948
41.5297
41.4655
41.4024
41.3402
41.2791
41.2189
41.1598
41.1017
41.0446
40.9885
40.9334
40.8794
40.8263
40.7743
40.7233
40.6734
40.6244
40.5765
40.5296
40.4837
40.4389
40.395
40.3522
40.3104
40.2695
40.2297
40.1909
40.153
40.1162
40.0803
40.0454
40.0115
39.9785
39.9465
39.9155
39.8854
39.8562
39.8279
39.8006
39.7742
39.7487
39.724
39.7003
39.6774
39.6554
39.6343
39.614
39.5945
39.5759
39.5581
39.5411
39.5249
39.5095
39.4949
39.481
39.4679
39.4555
39.4439
39.433
39.4228
39.4133
39.4045
39.3963
39.3889
39.3821
39.3759
39.3703
39.3654
39.3611
39.3574
39.3542
39.3516
39.3496
39.3481
39.3472
39.3468
39.3469
39.3475
39.3485
39.3501
39.3521
39.3545
39.3574
39.3607
39.3645
39.3686
39.3731
39.378
39.3833
39.3889
39.3949
39.4012
39.4078
39.4147
39.422
39.4295
39.4373
39.4453
39.4537
39.4622
39.471
39.48
39.4892
39.4986
39.5083
39.518
39.528
39.5381
39.5484
39.5588
39.5693
39.58
39.5907
39.6016
39.6126
39.6236
39.6347
39.6459
39.6571
39.6684
39.6797
39.6911
39.7024
39.7138
39.7252
39.7366
39.7479
39.7593
39.7706
39.7819
39.7931
39.8043
39.8154
39.8265
39.8375
39.8484
39.8592
39.87
39.8806
39.8912
39.9016
39.9119
39.9221
39.9321
39.9421
39.9519
39.9615
39.971
39.9803
39.9895
39.9985
40.0073
40.016
40.0245
40.0328
40.0409
40.0488
40.0565
40.0641
40.0714
40.0785
40.0854
40.0921
40.0985
40.1047
40.1108
40.1165
40.1221
40.1274
40.1325
40.1373
40.1419
40.1463
40.1504
40.1543
40.1579
40.1613
40.1644
40.1672
40.1698
40.1722
40.1743
40.1761
40.1777
40.179
40.18
40.1808
40.1813
40.1816
50.8269
50.8248
50.8203
50.8134
50.8042
50.7929
50.7796
50.7644
50.7472
50.7282
50.7072
50.6843
50.6596
50.6331
50.6047
50.5745
50.5424
50.5086
50.473
50.4356
50.3965
50.3556
50.3131
50.2689
50.223
50.1754
50.1263
50.0756
50.0233
49.9694
49.914
49.857
49.7986
49.7387
49.6774
49.6146
49.5504
49.4849
49.418
49.3498
49.2804
49.2097
49.1377
49.0646
48.9903
48.9149
48.8383
48.7607
48.6821
48.6024
48.5217
48.4401
48.3575
48.274
48.1897
48.1046
48.0186
47.9319
47.8445
47.7564
47.6676
47.5782
47.4881
47.3976
47.3065
47.2149
47.1228
47.0303
46.9374
46.8441
46.7505
46.6566
46.5624
46.4679
46.3733
46.2784
46.1834
46.0883
45.9932
45.8979
45.8027
45.7074
45.6122
45.517
45.422
45.327
45.2323
45.1377
45.0433
44.9491
44.8553
44.7617
44.6684
44.5755
44.4829
44.3908
44.2991
44.2078
44.117
44.0267
43.9369
43.8476
43.7589
43.6708
43.5833
43.4964
43.4102
43.3246
43.2397
43.1555
43.0721
42.9893
42.9074
42.8262
42.7457
42.6661
42.5873
42.5094
42.4323
42.356
42.2806
42.2061
42.1325
42.0598
41.9881
41.9172
41.8473
41.7783
41.7103
41.6433
41.5772
41.5121
41.448
41.3848
41.3227
41.2616
41.2014
41.1423
41.0842
41.0271
40.971
40.916
40.8619
40.8089
40.7569
40.7059
40.656
40.6071
40.5592
40.5123
40.4664
40.4216
40.3777
40.3349
40.2931
40.2523
40.2125
40.1737
40.1358
40.099
40.0632
40.0283
39.9944
39.9614
39.9294
39.8984
39.8683
39.8391
39.8109
39.7836
39.7571
39.7316
39.707
39.6833
39.6605
39.6385
39.6173
39.5971
39.5776
39.559
39.5412
39.5242
39.508
39.4927
39.478
39.4642
39.4511
39.4387
39.4271
39.4162
39.406
39.3965
39.3877
39.3796
39.3721
39.3653
39.3592
39.3536
39.3487
39.3444
39.3407
39.3376
39.335
39.333
39.3315
39.3306
39.3302
39.3303
39.3309
39.3319
39.3335
39.3355
39.338
39.3409
39.3442
39.3479
39.3521
39.3566
39.3615
39.3668
39.3724
39.3784
39.3847
39.3914
39.3983
39.4055
39.4131
39.4209
39.4289
39.4372
39.4458
39.4546
39.4636
39.4728
39.4823
39.4919
39.5017
39.5116
39.5217
39.532
39.5424
39.553
39.5636
39.5744
39.5853
39.5962
39.6073
39.6184
39.6296
39.6408
39.6521
39.6634
39.6748
39.6861
39.6975
39.7089
39.7203
39.7316
39.743
39.7543
39.7656
39.7768
39.788
39.7992
39.8102
39.8212
39.8321
39.843
39.8537
39.8644
39.8749
39.8853
39.8956
39.9058
39.9159
39.9258
39.9356
39.9453
39.9548
39.9641
39.9733
39.9823
39.9911
39.9998
40.0083
40.0166
40.0247
40.0326
40.0403
40.0478
40.0551
40.0623
40.0691
40.0758
40.0823
40.0885
40.0945
40.1003
40.1059
40.1112
40.1163
40.1211
40.1257
40.1301
40.1342
40.1381
40.1417
40.145
40.1482
40.151
40.1536
40.156
40.1581
40.1599
40.1615
40.1628
40.1638
40.1646
40.1651
40.1654
50.7522
50.7496
50.7442
50.7363
50.726
50.7137
50.6994
50.6833
50.6654
50.6457
50.6243
50.6011
50.5761
50.5494
50.5208
50.4905
50.4584
50.4245
50.3888
50.3514
50.3123
50.2715
50.2289
50.1847
50.1389
50.0914
50.0423
49.9916
49.9393
49.8855
49.8301
49.7733
49.7149
49.655
49.5938
49.5311
49.467
49.4015
49.3347
49.2666
49.1972
49.1266
49.0547
48.9817
48.9075
48.8321
48.7557
48.6781
48.5996
48.52
48.4394
48.3579
48.2754
48.192
48.1078
48.0228
47.9369
47.8503
47.763
47.675
47.5863
47.497
47.4071
47.3166
47.2256
47.1341
47.0422
46.9498
46.857
46.7638
46.6703
46.5765
46.4824
46.3881
46.2936
46.1989
46.104
46.009
45.914
45.8188
45.7237
45.6286
45.5335
45.4384
45.3435
45.2487
45.154
45.0596
44.9653
44.8713
44.7775
44.6841
44.5909
44.4981
44.4057
44.3137
44.2221
44.1309
44.0402
43.95
43.8603
43.7712
43.6826
43.5946
43.5073
43.4205
43.3344
43.2489
43.1641
43.0801
42.9967
42.9141
42.8323
42.7512
42.6709
42.5914
42.5127
42.4349
42.3579
42.2817
42.2064
42.132
42.0586
41.986
41.9143
41.8435
41.7737
41.7049
41.637
41.57
41.504
41.439
41.375
41.312
41.2499
41.1889
41.1289
41.0698
41.0118
40.9548
40.8988
40.8439
40.7899
40.737
40.6851
40.6342
40.5843
40.5355
40.4877
40.4408
40.3951
40.3503
40.3065
40.2638
40.2221
40.1813
40.1416
40.1028
40.0651
40.0283
39.9925
39.9577
39.9239
39.891
39.8591
39.8281
39.798
39.7689
39.7407
39.7135
39.6871
39.6617
39.6371
39.6134
39.5906
39.5687
39.5476
39.5274
39.508
39.4894
39.4717
39.4548
39.4386
39.4233
39.4087
39.3949
39.3818
39.3695
39.3579
39.347
39.3369
39.3274
39.3187
39.3106
39.3031
39.2964
39.2902
39.2847
39.2798
39.2755
39.2718
39.2687
39.2662
39.2642
39.2627
39.2618
39.2614
39.2615
39.2622
39.2633
39.2648
39.2669
39.2693
39.2722
39.2756
39.2793
39.2835
39.288
39.293
39.2982
39.3039
39.3099
39.3162
39.3228
39.3298
39.337
39.3445
39.3523
39.3604
39.3687
39.3773
39.3861
39.3951
39.4043
39.4137
39.4234
39.4332
39.4431
39.4532
39.4635
39.4739
39.4845
39.4951
39.5059
39.5168
39.5277
39.5388
39.5499
39.561
39.5723
39.5835
39.5949
39.6062
39.6176
39.6289
39.6403
39.6517
39.663
39.6744
39.6857
39.697
39.7082
39.7194
39.7305
39.7416
39.7526
39.7635
39.7743
39.785
39.7957
39.8062
39.8166
39.8269
39.8371
39.8472
39.8571
39.8669
39.8765
39.886
39.8953
39.9045
39.9135
39.9223
39.931
39.9395
39.9478
39.9559
39.9638
39.9715
39.979
39.9863
39.9934
40.0003
40.007
40.0134
40.0197
40.0257
40.0315
40.037
40.0423
40.0474
40.0522
40.0568
40.0612
40.0653
40.0692
40.0728
40.0762
40.0793
40.0821
40.0847
40.0871
40.0892
40.091
40.0926
40.0939
40.0949
40.0957
40.0962
40.0965
50.7235
50.7208
50.7154
50.7075
50.6973
50.685
50.6708
50.6548
50.6369
50.6172
50.5957
50.5725
50.5474
50.5206
50.492
50.4616
50.4295
50.3955
50.3598
50.3224
50.2832
50.2423
50.1998
50.1555
50.1096
50.0621
50.013
49.9623
49.91
49.8561
49.8007
49.7438
49.6854
49.6256
49.5643
49.5016
49.4374
49.372
49.3051
49.237
49.1676
49.097
49.0251
48.9521
48.8778
48.8025
48.726
48.6485
48.5699
48.4903
48.4097
48.3281
48.2457
48.1623
48.0781
47.993
47.9072
47.8206
47.7332
47.6452
47.5565
47.4672
47.3773
47.2868
47.1958
47.1043
47.0123
46.9199
46.8271
46.734
46.6405
46.5467
46.4526
46.3583
46.2637
46.169
46.0741
45.9792
45.8841
45.789
45.6938
45.5987
45.5036
45.4086
45.3136
45.2188
45.1242
45.0297
44.9354
44.8414
44.7477
44.6542
44.5611
44.4683
44.3759
44.2838
44.1922
44.1011
44.0104
43.9202
43.8305
43.7414
43.6528
43.5649
43.4775
43.3907
43.3046
43.2192
43.1344
43.0504
42.967
42.8844
42.8026
42.7215
42.6412
42.5618
42.4831
42.4053
42.3283
42.2521
42.1769
42.1025
42.029
41.9565
41.8848
41.8141
41.7443
41.6754
41.6076
41.5406
41.4747
41.4097
41.3457
41.2827
41.2207
41.1596
41.0996
41.0406
40.9826
40.9256
40.8697
40.8147
40.7608
40.7079
40.656
40.6051
40.5553
40.5065
40.4587
40.4119
40.3662
40.3214
40.2777
40.235
40.1932
40.1525
40.1128
40.0741
40.0364
39.9996
39.9639
39.9291
39.8953
39.8624
39.8305
39.7995
39.7695
39.7404
39.7123
39.6851
39.6587
39.6333
39.6088
39.5851
39.5623
39.5404
39.5194
39.4992
39.4798
39.4613
39.4435
39.4266
39.4105
39.3952
39.3806
39.3668
39.3538
39.3415
39.3299
39.3191
39.309
39.2995
39.2908
39.2827
39.2753
39.2686
39.2624
39.257
39.2521
39.2478
39.2441
39.2411
39.2385
39.2366
39.2351
39.2342
39.2339
39.234
39.2346
39.2358
39.2373
39.2394
39.2419
39.2448
39.2482
39.2519
39.2561
39.2607
39.2656
39.2709
39.2766
39.2826
39.2889
39.2956
39.3025
39.3098
39.3173
39.3251
39.3332
39.3416
39.3501
39.3589
39.368
39.3772
39.3866
39.3963
39.4061
39.4161
39.4262
39.4365
39.4469
39.4574
39.4681
39.4789
39.4898
39.5007
39.5118
39.5229
39.5341
39.5453
39.5566
39.568
39.5793
39.5907
39.6021
39.6134
39.6248
39.6362
39.6475
39.6589
39.6702
39.6814
39.6926
39.7037
39.7148
39.7258
39.7367
39.7475
39.7583
39.7689
39.7795
39.7899
39.8002
39.8104
39.8204
39.8304
39.8402
39.8498
39.8593
39.8686
39.8778
39.8868
39.8956
39.9043
39.9128
39.9211
39.9292
39.9371
39.9448
39.9523
39.9597
39.9668
39.9737
39.9803
39.9868
39.993
39.999
40.0048
40.0104
40.0157
40.0208
40.0256
40.0302
40.0346
40.0387
40.0425
40.0462
40.0495
40.0526
40.0555
40.0581
40.0604
40.0625
40.0644
40.0659
40.0672
40.0683
40.0691
40.0696
40.0699
50.6549
50.6521
50.6464
50.6382
50.6276
50.6149
50.6002
50.5837
50.5654
50.5453
50.5235
50.5
50.4747
50.4477
50.419
50.3884
50.3562
50.3221
50.2863
50.2488
50.2096
50.1687
50.1261
50.0819
50.036
49.9885
49.9393
49.8886
49.8363
49.7825
49.7271
49.6702
49.6119
49.552
49.4907
49.428
49.364
49.2985
49.2317
49.1636
49.0943
49.0237
48.9519
48.8788
48.8047
48.7293
48.6529
48.5754
48.4969
48.4173
48.3368
48.2553
48.1729
48.0896
48.0054
47.9204
47.8346
47.748
47.6608
47.5728
47.4842
47.3949
47.3051
47.2147
47.1237
47.0323
46.9404
46.8481
46.7553
46.6622
46.5688
46.4751
46.381
46.2868
46.1923
46.0977
46.0029
45.908
45.813
45.7179
45.6229
45.5278
45.4328
45.3378
45.243
45.1482
45.0537
44.9593
44.8651
44.7711
44.6775
44.5841
44.491
44.3983
44.306
44.214
44.1225
44.0315
43.9409
43.8507
43.7612
43.6721
43.5836
43.4957
43.4084
43.3218
43.2357
43.1504
43.0657
42.9817
42.8985
42.816
42.7342
42.6532
42.573
42.4936
42.415
42.3373
42.2604
42.1843
42.1092
42.0349
41.9615
41.889
41.8174
41.7468
41.6771
41.6083
41.5405
41.4736
41.4077
41.3428
41.2789
41.216
41.154
41.0931
41.0332
40.9742
40.9163
40.8594
40.8035
40.7486
40.6948
40.642
40.5901
40.5394
40.4896
40.4408
40.3931
40.3464
40.3007
40.256
40.2124
40.1697
40.1281
40.0874
40.0478
40.0091
39.9715
39.9348
39.8991
39.8644
39.8306
39.7978
39.766
39.7351
39.7051
39.6761
39.648
39.6208
39.5946
39.5692
39.5447
39.5211
39.4984
39.4765
39.4555
39.4354
39.4161
39.3976
39.3799
39.363
39.347
39.3317
39.3172
39.3034
39.2904
39.2782
39.2666
39.2559
39.2458
39.2364
39.2277
39.2196
39.2123
39.2055
39.1995
39.194
39.1892
39.185
39.1813
39.1783
39.1758
39.1738
39.1724
39.1716
39.1712
39.1714
39.1721
39.1732
39.1748
39.1769
39.1794
39.1824
39.1857
39.1895
39.1937
39.1983
39.2033
39.2086
39.2143
39.2203
39.2266
39.2333
39.2403
39.2476
39.2551
39.263
39.2711
39.2794
39.288
39.2968
39.3059
39.3151
39.3246
39.3342
39.344
39.354
39.3642
39.3745
39.3849
39.3954
39.4061
39.4169
39.4278
39.4388
39.4498
39.461
39.4722
39.4834
39.4947
39.506
39.5174
39.5288
39.5402
39.5515
39.5629
39.5743
39.5857
39.597
39.6083
39.6195
39.6307
39.6418
39.6529
39.6639
39.6748
39.6857
39.6964
39.7071
39.7176
39.728
39.7383
39.7485
39.7586
39.7685
39.7783
39.7879
39.7974
39.8068
39.8159
39.825
39.8338
39.8425
39.8509
39.8592
39.8673
39.8753
39.883
39.8905
39.8978
39.9049
39.9118
39.9185
39.9249
39.9312
39.9372
39.943
39.9485
39.9538
39.9589
39.9637
39.9683
39.9727
39.9768
39.9807
39.9843
39.9877
39.9908
39.9936
39.9962
39.9986
40.0007
40.0025
40.0041
40.0054
40.0064
40.0072
40.0077
40.008
50.6183
50.6155
50.6099
50.6019
50.5914
50.5788
50.5643
50.5478
50.5296
50.5095
50.4877
50.4642
50.4388
50.4118
50.3829
50.3523
50.32
50.2859
50.25
50.2125
50.1732
50.1322
50.0896
50.0453
49.9993
49.9518
49.9026
49.8518
49.7995
49.7456
49.6902
49.6333
49.5749
49.515
49.4537
49.391
49.3268
49.2614
49.1945
49.1264
49.057
48.9864
48.9146
48.8415
48.7673
48.692
48.6155
48.538
48.4594
48.3798
48.2993
48.2177
48.1353
48.052
47.9678
47.8827
47.7969
47.7103
47.623
47.5351
47.4464
47.3571
47.2673
47.1768
47.0859
46.9944
46.9025
46.8101
46.7174
46.6243
46.5308
46.4371
46.343
46.2488
46.1543
46.0596
45.9648
45.8699
45.7749
45.6798
45.5847
45.4897
45.3946
45.2997
45.2048
45.11
45.0155
44.9211
44.8269
44.7329
44.6392
44.5459
44.4528
44.3601
44.2677
44.1758
44.0843
43.9932
43.9026
43.8125
43.7229
43.6339
43.5454
43.4575
43.3702
43.2835
43.1975
43.1122
43.0275
42.9435
42.8603
42.7778
42.696
42.615
42.5348
42.4555
42.3769
42.2992
42.2223
42.1462
42.0711
41.9968
41.9234
41.851
41.7794
41.7088
41.6391
41.5703
41.5025
41.4357
41.3699
41.305
41.2411
41.1782
41.1163
41.0553
40.9954
40.9365
40.8786
40.8217
40.7659
40.711
40.6572
40.6044
40.5526
40.5019
40.4521
40.4034
40.3557
40.309
40.2634
40.2187
40.1751
40.1325
40.0909
40.0503
40.0107
39.972
39.9344
39.8978
39.8621
39.8274
39.7937
39.7609
39.7291
39.6983
39.6683
39.6394
39.6113
39.5842
39.5579
39.5326
39.5081
39.4846
39.4619
39.4401
39.4191
39.399
39.3797
39.3613
39.3436
39.3268
39.3107
39.2955
39.281
39.2673
39.2544
39.2421
39.2307
39.2199
39.2098
39.2005
39.1918
39.1838
39.1765
39.1698
39.1638
39.1583
39.1535
39.1493
39.1457
39.1427
39.1402
39.1383
39.137
39.1361
39.1358
39.136
39.1367
39.1379
39.1395
39.1416
39.1442
39.1472
39.1506
39.1544
39.1586
39.1632
39.1682
39.1736
39.1793
39.1853
39.1917
39.1984
39.2054
39.2127
39.2203
39.2281
39.2363
39.2446
39.2533
39.2621
39.2712
39.2804
39.2899
39.2996
39.3094
39.3194
39.3296
39.3399
39.3504
39.3609
39.3716
39.3824
39.3934
39.4044
39.4154
39.4266
39.4378
39.4491
39.4604
39.4717
39.4831
39.4945
39.5059
39.5173
39.5287
39.5401
39.5514
39.5628
39.5741
39.5853
39.5965
39.6077
39.6188
39.6298
39.6407
39.6516
39.6623
39.673
39.6835
39.694
39.7043
39.7145
39.7246
39.7345
39.7443
39.7539
39.7634
39.7728
39.782
39.791
39.7998
39.8085
39.817
39.8253
39.8334
39.8413
39.8491
39.8566
39.8639
39.871
39.8779
39.8846
39.891
39.8973
39.9033
39.9091
39.9146
39.92
39.925
39.9299
39.9345
39.9389
39.943
39.9468
39.9505
39.9538
39.9569
39.9598
39.9624
39.9647
39.9668
39.9687
39.9702
39.9715
39.9726
39.9734
39.9739
39.9742
50.5548
50.552
50.5463
50.5382
50.5276
50.5149
50.5001
50.4835
50.465
50.4448
50.4228
50.399
50.3735
50.3463
50.3173
50.2865
50.2541
50.2199
50.1839
50.1463
50.107
50.0659
50.0232
49.9789
49.9329
49.8853
49.8361
49.7853
49.733
49.6791
49.6237
49.5667
49.5083
49.4484
49.3871
49.3243
49.2602
49.1947
49.1279
49.0598
48.9904
48.9198
48.8479
48.7749
48.7007
48.6254
48.5489
48.4714
48.3928
48.3133
48.2327
48.1512
48.0688
47.9854
47.9012
47.8162
47.7304
47.6439
47.5566
47.4686
47.38
47.2907
47.2009
47.1105
47.0195
46.9281
46.8362
46.7439
46.6512
46.5581
46.4646
46.3709
46.2769
46.1827
46.0882
45.9936
45.8988
45.8039
45.7089
45.6139
45.5189
45.4238
45.3288
45.2339
45.1391
45.0444
44.9498
44.8554
44.7613
44.6674
44.5738
44.4804
44.3874
44.2947
44.2024
44.1105
44.019
43.928
43.8375
43.7474
43.6579
43.5689
43.4804
43.3926
43.3053
43.2187
43.1328
43.0475
42.9628
42.8789
42.7957
42.7133
42.6316
42.5507
42.4705
42.3912
42.3127
42.235
42.1582
42.0822
42.0071
41.9329
41.8596
41.7872
41.7157
41.6451
41.5755
41.5068
41.4391
41.3723
41.3065
41.2417
41.1778
41.115
41.0531
40.9923
40.9324
40.8736
40.8158
40.7589
40.7031
40.6484
40.5946
40.5419
40.4901
40.4394
40.3898
40.3411
40.2935
40.2469
40.2013
40.1567
40.1131
40.0706
40.029
39.9885
39.9489
39.9104
39.8728
39.8362
39.8006
39.766
39.7323
39.6996
39.6679
39.6371
39.6072
39.5783
39.5503
39.5232
39.497
39.4718
39.4474
39.4239
39.4012
39.3795
39.3586
39.3385
39.3193
39.3009
39.2833
39.2665
39.2505
39.2353
39.2209
39.2073
39.1943
39.1822
39.1708
39.16
39.15
39.1407
39.1321
39.1242
39.1169
39.1102
39.1042
39.0989
39.0941
39.0899
39.0864
39.0834
39.081
39.0791
39.0778
39.077
39.0767
39.077
39.0777
39.0789
39.0806
39.0827
39.0853
39.0883
39.0918
39.0956
39.0999
39.1045
39.1096
39.1149
39.1207
39.1268
39.1332
39.1399
39.1469
39.1543
39.1619
39.1698
39.1779
39.1863
39.1949
39.2038
39.2129
39.2222
39.2317
39.2414
39.2513
39.2613
39.2715
39.2818
39.2923
39.3029
39.3136
39.3244
39.3354
39.3464
39.3575
39.3686
39.3799
39.3911
39.4025
39.4138
39.4252
39.4366
39.448
39.4595
39.4709
39.4823
39.4937
39.505
39.5163
39.5276
39.5388
39.55
39.5611
39.5721
39.583
39.5939
39.6047
39.6153
39.6259
39.6363
39.6467
39.6569
39.667
39.6769
39.6867
39.6964
39.7059
39.7152
39.7244
39.7334
39.7423
39.751
39.7595
39.7678
39.7759
39.7838
39.7915
39.7991
39.8064
39.8135
39.8204
39.8271
39.8336
39.8398
39.8458
39.8516
39.8572
39.8625
39.8676
39.8724
39.877
39.8814
39.8855
39.8894
39.893
39.8964
39.8995
39.9023
39.9049
39.9073
39.9094
39.9112
39.9128
39.9141
39.9151
39.9159
39.9165
39.9167
50.5133
50.5106
50.505
50.497
50.4866
50.474
50.4594
50.4429
50.4244
50.4042
50.3822
50.3584
50.3328
50.3055
50.2765
50.2457
50.2131
50.1789
50.1429
50.1051
50.0657
50.0246
49.9819
49.9375
49.8914
49.8438
49.7945
49.7437
49.6913
49.6373
49.5818
49.5248
49.4663
49.4064
49.345
49.2822
49.218
49.1525
49.0856
49.0175
48.948
48.8774
48.8055
48.7324
48.6581
48.5827
48.5063
48.4287
48.3501
48.2705
48.1899
48.1083
48.0258
47.9425
47.8582
47.7732
47.6873
47.6007
47.5134
47.4254
47.3367
47.2474
47.1575
47.0671
46.9761
46.8846
46.7927
46.7003
46.6076
46.5144
46.421
46.3272
46.2332
46.1389
46.0444
45.9497
45.8549
45.76
45.665
45.5699
45.4749
45.3798
45.2848
45.1898
45.0949
45.0002
44.9056
44.8113
44.7171
44.6232
44.5295
44.4361
44.3431
44.2504
44.1581
44.0662
43.9747
43.8836
43.7931
43.703
43.6135
43.5244
43.436
43.3482
43.2609
43.1743
43.0883
43.003
42.9184
42.8345
42.7513
42.6688
42.5871
42.5062
42.4261
42.3468
42.2683
42.1906
42.1138
42.0378
41.9627
41.8885
41.8152
41.7428
41.6713
41.6008
41.5312
41.4625
41.3948
41.328
41.2623
41.1975
41.1337
41.0708
41.009
40.9482
40.8884
40.8295
40.7717
40.715
40.6592
40.6044
40.5507
40.498
40.4463
40.3957
40.346
40.2974
40.2498
40.2032
40.1577
40.1131
40.0696
40.0271
39.9856
39.9451
39.9055
39.867
39.8295
39.793
39.7574
39.7228
39.6892
39.6565
39.6248
39.5941
39.5643
39.5354
39.5074
39.4804
39.4543
39.429
39.4047
39.3812
39.3586
39.3369
39.3161
39.2961
39.2769
39.2585
39.241
39.2242
39.2083
39.1932
39.1788
39.1652
39.1523
39.1402
39.1288
39.1181
39.1082
39.0989
39.0903
39.0824
39.0752
39.0686
39.0627
39.0573
39.0526
39.0485
39.045
39.042
39.0397
39.0378
39.0366
39.0358
39.0356
39.0359
39.0366
39.0379
39.0396
39.0418
39.0444
39.0475
39.051
39.0549
39.0592
39.0638
39.0689
39.0743
39.0801
39.0862
39.0927
39.0994
39.1065
39.1139
39.1215
39.1294
39.1376
39.146
39.1547
39.1636
39.1727
39.1821
39.1916
39.2013
39.2112
39.2213
39.2315
39.2419
39.2524
39.263
39.2737
39.2846
39.2955
39.3066
39.3177
39.3289
39.3402
39.3515
39.3628
39.3742
39.3856
39.397
39.4085
39.4199
39.4314
39.4428
39.4542
39.4656
39.4769
39.4882
39.4994
39.5106
39.5217
39.5328
39.5437
39.5546
39.5654
39.5761
39.5866
39.5971
39.6074
39.6177
39.6278
39.6377
39.6475
39.6572
39.6667
39.6761
39.6853
39.6943
39.7032
39.7119
39.7204
39.7287
39.7368
39.7448
39.7525
39.7601
39.7674
39.7745
39.7814
39.7881
39.7946
39.8008
39.8069
39.8127
39.8182
39.8235
39.8286
39.8335
39.8381
39.8425
39.8466
39.8505
39.8541
39.8575
39.8606
39.8634
39.8661
39.8684
39.8705
39.8723
39.8739
39.8752
39.8763
39.8771
39.8776
39.8779
50.4537
50.451
50.4455
50.4375
50.4271
50.4145
50.3998
50.3832
50.3647
50.3443
50.3222
50.2983
50.2726
50.2452
50.216
50.1851
50.1524
50.118
50.0819
50.0441
50.0046
49.9635
49.9206
49.8762
49.8301
49.7823
49.733
49.6821
49.6297
49.5757
49.5201
49.4631
49.4046
49.3446
49.2832
49.2203
49.1561
49.0906
49.0237
48.9555
48.886
48.8153
48.7434
48.6702
48.596
48.5205
48.444
48.3664
48.2878
48.2082
48.1275
48.046
47.9634
47.8801
47.7958
47.7107
47.6249
47.5382
47.4509
47.3629
47.2742
47.1849
47.0949
47.0045
46.9135
46.822
46.7301
46.6377
46.5449
46.4518
46.3583
46.2645
46.1705
46.0762
45.9817
45.887
45.7922
45.6973
45.6022
45.5072
45.4121
45.317
45.222
45.127
45.0322
44.9375
44.8429
44.7485
44.6543
44.5604
44.4668
44.3734
44.2804
44.1877
44.0954
44.0035
43.912
43.821
43.7304
43.6404
43.5509
43.4619
43.3734
43.2856
43.1984
43.1118
43.0258
42.9406
42.856
42.7721
42.6889
42.6065
42.5248
42.4439
42.3638
42.2846
42.2061
42.1284
42.0517
41.9757
41.9007
41.8265
41.7533
41.6809
41.6095
41.5389
41.4694
41.4008
41.3331
41.2664
41.2007
41.1359
41.0722
41.0094
40.9476
40.8868
40.8271
40.7683
40.7105
40.6538
40.5981
40.5434
40.4897
40.4371
40.3854
40.3348
40.2852
40.2367
40.1892
40.1426
40.0971
40.0526
40.0092
39.9667
39.9253
39.8848
39.8454
39.8069
39.7695
39.733
39.6975
39.6629
39.6294
39.5968
39.5652
39.5345
39.5047
39.4759
39.448
39.421
39.3949
39.3698
39.3455
39.3221
39.2996
39.2779
39.2571
39.2372
39.218
39.1998
39.1823
39.1656
39.1497
39.1346
39.1203
39.1068
39.094
39.0819
39.0706
39.06
39.0501
39.0409
39.0323
39.0245
39.0173
39.0108
39.0049
38.9996
38.9949
38.9909
38.9874
38.9845
38.9822
38.9804
38.9792
38.9785
38.9783
38.9787
38.9795
38.9808
38.9826
38.9848
38.9875
38.9906
38.9941
38.9981
39.0024
39.0071
39.0122
39.0177
39.0235
39.0297
39.0361
39.0429
39.0501
39.0575
39.0651
39.0731
39.0813
39.0898
39.0985
39.1075
39.1166
39.126
39.1355
39.1453
39.1552
39.1653
39.1756
39.186
39.1965
39.2072
39.2179
39.2288
39.2398
39.2509
39.262
39.2732
39.2845
39.2959
39.3072
39.3186
39.3301
39.3415
39.353
39.3645
39.3759
39.3874
39.3988
39.4102
39.4216
39.4329
39.4441
39.4553
39.4665
39.4775
39.4885
39.4994
39.5102
39.5209
39.5315
39.542
39.5523
39.5626
39.5727
39.5826
39.5925
39.6022
39.6117
39.6211
39.6303
39.6393
39.6482
39.6569
39.6654
39.6738
39.6819
39.6899
39.6976
39.7051
39.7125
39.7196
39.7265
39.7332
39.7397
39.746
39.752
39.7578
39.7634
39.7687
39.7738
39.7787
39.7833
39.7877
39.7918
39.7957
39.7993
39.8027
39.8058
39.8087
39.8113
39.8136
39.8157
39.8176
39.8191
39.8204
39.8215
39.8223
39.8228
39.8231
50.4092
50.4066
50.4012
50.3933
50.383
50.3706
50.356
50.3395
50.321
50.3007
50.2785
50.2546
50.2289
50.2014
50.1722
50.1412
50.1084
50.074
50.0378
49.9999
49.9603
49.9191
49.8762
49.8316
49.7854
49.7377
49.6883
49.6373
49.5848
49.5307
49.4751
49.418
49.3594
49.2993
49.2378
49.1749
49.1106
49.045
48.978
48.9098
48.8402
48.7694
48.6974
48.6243
48.5499
48.4744
48.3979
48.3202
48.2415
48.1618
48.0811
47.9994
47.9169
47.8334
47.7491
47.6639
47.578
47.4913
47.4039
47.3158
47.2271
47.1377
47.0477
46.9572
46.8661
46.7746
46.6826
46.5901
46.4973
46.4041
46.3106
46.2167
46.1226
46.0283
45.9337
45.839
45.7441
45.6491
45.5541
45.459
45.3638
45.2687
45.1736
45.0786
44.9837
44.8889
44.7943
44.6999
44.6057
44.5117
44.418
44.3247
44.2316
44.1389
44.0465
43.9546
43.8631
43.772
43.6815
43.5914
43.5018
43.4128
43.3244
43.2365
43.1493
43.0626
42.9767
42.8914
42.8068
42.7229
42.6397
42.5573
42.4756
42.3947
42.3146
42.2353
42.1568
42.0792
42.0024
41.9265
41.8515
41.7773
41.704
41.6317
41.5603
41.4898
41.4202
41.3516
41.284
41.2173
41.1516
41.0868
41.0231
40.9603
40.8986
40.8378
40.7781
40.7194
40.6616
40.6049
40.5492
40.4946
40.4409
40.3883
40.3367
40.2862
40.2366
40.1881
40.1406
40.0941
40.0486
40.0042
39.9608
39.9184
39.877
39.8366
39.7971
39.7587
39.7213
39.6849
39.6494
39.615
39.5815
39.5489
39.5173
39.4867
39.457
39.4282
39.4004
39.3734
39.3474
39.3223
39.2981
39.2748
39.2523
39.2307
39.2099
39.19
39.171
39.1527
39.1353
39.1187
39.1029
39.0878
39.0736
39.0601
39.0473
39.0353
39.0241
39.0135
39.0037
38.9945
38.9861
38.9783
38.9711
38.9647
38.9588
38.9536
38.949
38.945
38.9416
38.9388
38.9365
38.9348
38.9336
38.933
38.9328
38.9332
38.9341
38.9355
38.9373
38.9396
38.9423
38.9454
38.949
38.953
38.9574
38.9622
38.9673
38.9729
38.9787
38.9849
38.9915
38.9983
39.0055
39.0129
39.0206
39.0286
39.0369
39.0454
39.0542
39.0632
39.0724
39.0818
39.0914
39.1012
39.1111
39.1213
39.1316
39.142
39.1526
39.1633
39.1741
39.185
39.196
39.2071
39.2183
39.2296
39.2409
39.2523
39.2637
39.2751
39.2866
39.2981
39.3096
39.3211
39.3325
39.344
39.3555
39.3669
39.3783
39.3896
39.4009
39.4121
39.4233
39.4344
39.4454
39.4563
39.4671
39.4778
39.4885
39.499
39.5093
39.5196
39.5297
39.5397
39.5496
39.5593
39.5688
39.5782
39.5875
39.5965
39.6054
39.6141
39.6227
39.631
39.6392
39.6471
39.6549
39.6625
39.6698
39.6769
39.6839
39.6906
39.6971
39.7033
39.7094
39.7152
39.7208
39.7261
39.7312
39.7361
39.7407
39.7451
39.7492
39.7531
39.7568
39.7601
39.7633
39.7661
39.7688
39.7711
39.7732
39.775
39.7766
39.7779
39.779
39.7798
39.7803
39.7806
50.3527
50.3501
50.3447
50.3369
50.3266
50.3142
50.2996
50.2831
50.2646
50.2442
50.222
50.198
50.1722
50.1446
50.1152
50.0841
50.0513
50.0167
49.9805
49.9425
49.9028
49.8615
49.8185
49.7739
49.7276
49.6798
49.6303
49.5793
49.5266
49.4725
49.4168
49.3596
49.301
49.2408
49.1793
49.1163
49.052
48.9863
48.9192
48.8509
48.7813
48.7105
48.6384
48.5652
48.4908
48.4152
48.3386
48.2609
48.1821
48.1023
48.0216
47.9399
47.8572
47.7737
47.6893
47.6041
47.5181
47.4314
47.3439
47.2558
47.167
47.0775
46.9875
46.8969
46.8058
46.7142
46.6222
46.5297
46.4368
46.3436
46.25
46.1561
46.0619
45.9676
45.873
45.7782
45.6833
45.5883
45.4932
45.398
45.3028
45.2077
45.1126
45.0175
44.9226
44.8278
44.7332
44.6387
44.5445
44.4505
44.3568
44.2633
44.1703
44.0775
43.9852
43.8932
43.8017
43.7106
43.62
43.5299
43.4404
43.3514
43.2629
43.175
43.0878
43.0012
42.9152
42.8299
42.7453
42.6614
42.5783
42.4958
42.4142
42.3333
42.2532
42.1739
42.0955
42.0178
41.9411
41.8652
41.7901
41.716
41.6428
41.5704
41.499
41.4286
41.359
41.2905
41.2228
41.1562
41.0905
41.0258
40.9621
40.8994
40.8377
40.777
40.7173
40.6586
40.6009
40.5442
40.4886
40.434
40.3804
40.3278
40.2763
40.2258
40.1763
40.1278
40.0803
40.0339
39.9885
39.9441
39.9008
39.8584
39.8171
39.7767
39.7374
39.699
39.6617
39.6253
39.5899
39.5555
39.522
39.4896
39.458