/*--------------------------------*- C++ -*----------------------------------*\
| =========                 |                                                 |
| \\      /  F ield         | OpenFOAM: The Open Source CFD Toolbox           |
|  \\    /   O peration     | Version:  2212                                  |
|   \\  /    A nd           | Website:  www.openfoam.com                      |
|    \\/     M anipulation  |                                                 |
\*---------------------------------------------------------------------------*/
FoamFile
{
    version     2.0;
    format      ascii;
    arch        "LSB;label=32;scalar=64";
    class       surfaceScalarField;
    location    "830";
    object      phi;
}
// * * * * * * * * * * * * * * * * * * * * * * * * * * * * * * * * * * * * * //

dimensions      [1 0 -1 0 0 0 0];

oriented        oriented;

internalField   nonuniform List<scalar> 
408640
(
-912.033
914.303
-1798.92
887.624
-2635.39
837.22
-3406.62
771.949
-4108.92
703.013
-4747.42
639.198
-5333.25
586.536
-5879.92
547.366
-6400.54
521.325
-6906.07
506.226
-7404.6
499.235
-7901.48
497.577
-8399.77
498.997
-8900.95
501.87
-9405.41
505.16
-9913
508.279
-10423.3
510.943
-10935.6
513.055
-11449.5
514.612
-11964.5
515.658
-12480.1
516.252
-12995.9
516.451
-13511.5
516.305
-14026.7
515.86
-14541.2
515.15
-15054.7
514.205
-15567.1
513.049
-16078.1
511.704
-16587.6
510.184
-17095.5
508.505
-17601.5
506.678
-18105.6
504.712
-18607.5
502.618
-19107.3
500.402
-19604.7
498.07
-20099.7
495.628
-20592.2
493.081
-21082
490.434
-21569.1
487.69
-22053.3
484.854
-22534.6
481.927
-23012.9
478.914
-23488.1
475.817
-23960.2
472.638
-24428.9
469.379
-24894.4
466.044
-25356.4
462.633
-25815
459.149
-26270
455.593
-26721.4
451.968
-27169.1
448.274
-27613.1
444.514
-28053.2
440.689
-28489.5
436.801
-28921.8
432.851
-29350.1
428.84
-29774.3
424.77
-30194.4
420.642
-30610.4
416.458
-31022.1
412.219
-31429.5
407.926
-31832.6
403.58
-32231.3
399.184
-32625.5
394.737
-33015.3
390.242
-33400.5
385.699
-33781.1
381.11
-34157.1
376.476
-34528.5
371.799
-34895.1
367.079
-35257
362.318
-35614.1
357.517
-35966.3
352.677
-36313.7
347.8
-36656.2
342.886
-36993.7
337.938
-37326.2
332.955
-37653.8
327.94
-37976.3
322.893
-38293.7
317.816
-38606
312.71
-38913.2
307.575
-39215.3
302.415
-39512.2
297.228
-39803.8
292.018
-40090.3
286.784
-40371.5
281.528
-40647.4
276.252
-40918
270.956
-41183.4
265.641
-41443.4
260.309
-41698
254.961
-41947.4
249.597
-42191.3
244.22
-42429.9
238.831
-42663
233.429
-42890.8
228.017
-43113.1
222.596
-43330
217.166
-43541.5
211.729
-43747.6
206.286
-43948.2
200.838
-44143.4
195.386
-44333.1
189.931
-44517.4
184.474
-44696.2
179.016
-44869.6
173.559
-45037.5
168.102
-45200
162.648
-45357
157.198
-45508.6
151.751
-45654.8
146.309
-45795.5
140.874
-45930.8
135.446
-46060.7
130.026
-46185.2
124.615
-46304.4
119.214
-46418.1
113.823
-46526.4
108.444
-46629.4
103.078
-46727.1
97.7252
-46819.4
92.3867
-46906.4
87.0632
-46988.1
81.7557
-47064.5
76.4649
-47135.7
71.1916
-47201.6
65.9366
-47262.2
60.7007
-47317.7
55.4846
-47368
50.289
-47413.1
45.1147
-47453.1
39.9624
-47487.9
34.8327
-47517.6
29.7264
-47542.3
24.644
-47561.9
19.5863
-47576.5
14.5538
-47586.1
9.54721
-47590.7
4.56708
-47590.4
-0.38599
-47585.2
-5.31145
-47575
-10.2087
-47560
-15.0773
-47540.2
-19.9167
-47515.6
-24.7263
-47486.2
-29.5057
-47452
-34.2545
-47413.2
-38.9721
-47369.7
-43.6581
-47321.5
-48.3121
-47268.7
-52.9336
-47211.3
-57.5224
-47149.4
-62.0779
-47082.9
-66.5998
-47012
-71.0879
-46936.6
-75.5417
-46856.8
-79.9609
-46772.7
-84.3452
-46684.2
-88.6943
-46591.3
-93.008
-46494.3
-97.2859
-46392.9
-101.528
-46287.4
-105.734
-46177.7
-109.903
-46063.9
-114.036
-45946
-118.132
-45824.1
-122.19
-45698.1
-126.212
-45568.1
-130.196
-45434.2
-134.143
-45296.5
-138.052
-45154.8
-141.924
-45009.3
-145.757
-44860
-149.553
-44707
-153.311
-44550.3
-157.031
-44389.8
-160.712
-44225.8
-164.355
-44058.1
-167.961
-43886.9
-171.527
-43712.1
-175.056
-43533.9
-178.546
-43352.2
-181.999
-43167.2
-185.413
-42978.7
-188.788
-42786.9
-192.126
-42591.8
-195.425
-42393.5
-198.687
-42191.9
-201.91
-41987.2
-205.096
-41779.3
-208.243
-41568.3
-211.353
-41354.2
-214.426
-41137.2
-217.461
-40917.1
-220.458
-40694
-223.418
-40468.1
-226.341
-40239.2
-229.227
-40007.5
-232.076
-39773.1
-234.889
-39535.8
-237.664
-39295.8
-240.404
-39053.1
-243.107
-38807.7
-245.774
-38559.7
-248.406
-38309.2
-251.002
-38056
-253.562
-37800.3
-256.087
-37542.2
-258.577
-37281.6
-261.032
-37018.6
-263.452
-36753.2
-265.838
-36485.4
-268.19
-36215.4
-270.508
-35943
-272.792
-35668.4
-275.043
-35391.6
-277.26
-35112.6
-279.444
-34831.5
-281.596
-34548.3
-283.715
-34262.9
-285.802
-33975.5
-287.856
-33686.1
-289.879
-33394.7
-291.87
-33101.4
-293.83
-32806.1
-295.759
-32508.9
-297.658
-32209.9
-299.525
-31909
-301.363
-31606.3
-303.171
-31301.8
-304.948
-30995.6
-306.697
-30687.7
-308.416
-30378.1
-310.107
-30066.8
-311.768
-29753.9
-313.402
-29439.4
-315.007
-29123.4
-316.585
-28805.7
-318.134
-28486.6
-319.657
-28165.9
-321.153
-27843.8
-322.622
-27520.3
-324.064
-27195.3
-325.48
-26869
-326.87
-26541.2
-328.235
-26212.2
-329.574
-25881.8
-330.888
-25550.2
-332.177
-25217.3
-333.441
-24883.1
-334.681
-24547.7
-335.897
-24211.2
-337.089
-23873.4
-338.257
-23534.6
-339.402
-23194.6
-340.524
-22853.5
-341.623
-22511.3
-342.699
-22168.1
-343.753
-21823.9
-344.784
-21478.6
-345.794
-21132.4
-346.782
-20785.1
-347.749
-20437
-348.694
-20087.9
-349.619
-19737.9
-350.522
-19387.1
-351.405
-19035.4
-352.268
-18682.8
-353.111
-18329.4
-353.933
-17975.2
-354.736
-17620.2
-355.52
-17264.5
-356.284
-16908
-357.029
-16550.8
-357.755
-16192.9
-358.462
-15834.3
-359.151
-15475
-359.822
-15115.1
-360.474
-14754.6
-361.108
-14393.4
-361.725
-14031.6
-362.324
-13669.3
-362.905
-13306.4
-363.469
-12942.9
-364.016
-12578.9
-364.546
-12214.4
-365.059
-11849.4
-365.556
-11483.9
-366.036
-11118
-366.499
-10751.6
-366.947
-10384.8
-367.378
-10017.5
-367.793
-9649.9
-368.193
-9281.88
-368.577
-8913.49
-368.945
-8544.76
-369.298
-8175.68
-369.636
-7806.28
-369.959
-7436.57
-370.267
-7066.57
-370.56
-6696.3
-370.838
-6325.76
-371.102
-5954.97
-371.351
-5583.94
-371.586
-5212.69
-371.807
-4841.24
-372.014
-4469.6
-372.206
-4097.77
-372.385
-3725.79
-372.55
-3353.65
-372.7
-2981.37
-372.837
-2608.97
-372.959
-2236.47
-373.067
-1863.87
-373.16
-1491.19
-373.239
-1118.45
-373.303
-745.664
-373.352
-372.841
-373.385
-373.403
-898.045
1813.08
-1771.82
1762.14
-2598.35
1664.47
-3363.73
1538.04
-4063.96
1403.94
-4703.48
1279.42
-5292.43
1176.18
-5843.33
1098.97
-6368.53
1047.22
-6878.43
1016.83
-7380.83
1002.34
-7880.93
998.384
-8381.82
1000.58
-8885
1005.74
-9390.97
1011.83
-9899.66
1017.66
-10410.7
1022.67
-10923.6
1026.64
-11437.9
1029.57
-11953
1031.51
-12468.7
1032.58
-12984.5
1032.89
-13500
1032.53
-14015.1
1031.58
-14529.3
1030.12
-15042.7
1028.19
-15554.8
1025.85
-16065.6
1023.13
-16574.8
1020.08
-17082.3
1016.7
-17588
1013.03
-18091.8
1009.09
-18593.4
1004.89
-19092.8
1000.45
-19589.9
995.782
-20084.5
990.893
-20576.6
985.795
-21066
980.497
-21552.7
975.006
-22036.6
969.33
-22517.5
963.475
-22995.4
957.447
-23470.3
951.251
-23941.9
944.892
-24410.3
938.374
-24875.4
931.703
-25337.1
924.881
-25795.2
917.913
-26249.9
910.802
-26700.9
903.551
-27148.2
896.165
-27591.8
888.646
-28031.6
880.997
-28467.4
873.222
-28899.4
865.322
-29327.3
857.302
-29751.1
849.163
-30170.9
840.909
-30586.5
832.543
-30997.8
824.066
-31404.8
815.482
-31807.5
806.792
-32205.9
798.001
-32599.7
789.11
-32989.1
780.121
-33374
771.038
-33754.3
761.863
-34129.9
752.598
-34500.9
743.245
-34867.2
733.808
-35228.7
724.288
-35585.5
714.689
-35937.4
705.012
-36284.4
695.26
-36626.5
685.436
-36963.7
675.541
-37296
665.579
-37623.2
655.551
-37945.3
645.461
-38262.5
635.31
-38574.5
625.1
-38881.4
614.835
-39183.1
604.517
-39479.7
594.148
-39771
583.73
-40057.2
573.266
-40338.1
562.758
-40613.7
552.208
-40884.1
541.619
-41149.1
530.994
-41408.8
520.333
-41663.2
509.64
-41912.2
498.918
-42155.9
488.167
-42394.2
477.391
-42627.1
466.592
-42854.6
455.772
-43076.7
444.933
-43293.3
434.078
-43504.6
423.208
-43710.4
412.326
-43910.8
401.434
-44105.7
390.533
-44295.2
379.628
-44479.2
368.718
-44657.8
357.807
-44831
346.896
-44998.7
335.988
-45161
325.084
-45317.8
314.186
-45469.2
303.298
-45615.2
292.419
-45755.7
281.553
-45890.8
270.701
-46020.5
259.865
-46144.9
249.047
-46263.8
238.249
-46377.3
227.473
-46485.5
216.72
-46588.4
205.992
-46685.8
195.291
-46778
184.618
-46864.9
173.976
-46946.4
163.365
-47022.7
152.788
-47093.7
142.246
-47159.5
131.741
-47220
121.274
-47275.4
110.846
-47325.5
100.46
-47370.5
90.116
-47410.4
79.816
-47445.1
69.5613
-47474.8
59.3533
-47499.3
49.1933
-47518.9
39.0826
-47533.4
29.0224
-47542.9
19.0139
-47547.4
9.0584
-47547
-0.843011
-47541.7
-10.6892
-47531.5
-20.479
-47516.5
-30.2115
-47496.6
-39.8855
-47471.9
-49.5
-47442.5
-59.0541
-47408.3
-68.5469
-47369.4
-77.9774
-47325.8
-87.3446
-47277.6
-96.6479
-47224.8
-105.886
-47167.4
-115.059
-47105.5
-124.166
-47039
-133.205
-46968.1
-142.176
-46892.7
-151.079
-46813
-159.913
-46728.8
-168.677
-46640.3
-177.37
-46547.5
-185.993
-46450.5
-194.544
-46349.2
-203.024
-46243.7
-211.431
-46134.1
-219.765
-46020.3
-228.026
-45902.4
-236.213
-45780.5
-244.326
-45654.6
-252.365
-45524.7
-260.329
-45390.9
-268.218
-45253.2
-276.032
-45111.6
-283.771
-44966.2
-291.434
-44817
-299.021
-44664.1
-306.532
-44507.4
-313.967
-44347.1
-321.326
-44183.1
-328.608
-44015.6
-335.814
-43844.5
-342.944
-43669.8
-349.997
-43491.7
-356.974
-43310.2
-363.874
-43125.2
-370.697
-42936.9
-377.445
-42745.2
-384.116
-42550.3
-390.711
-42352.1
-397.23
-42150.7
-403.673
-41946.1
-410.04
-41738.3
-416.331
-41527.5
-422.547
-41313.6
-428.688
-41096.7
-434.754
-40876.8
-440.745
-40653.9
-446.662
-40428.1
-452.504
-40199.5
-458.272
-39968
-463.967
-39733.7
-469.588
-39496.6
-475.136
-39256.8
-480.611
-39014.3
-486.014
-38769.1
-491.345
-38521.4
-496.605
-38271
-501.793
-38018.1
-506.91
-37762.6
-511.956
-37504.7
-516.933
-37244.3
-521.84
-36981.5
-526.677
-36716.3
-531.446
-36448.8
-536.147
-36179
-540.779
-35906.9
-545.344
-35632.5
-549.842
-35356
-554.274
-35077.2
-558.64
-34796.4
-562.94
-34513.4
-567.175
-34228.3
-571.345
-33941.2
-575.451
-33652
-579.494
-33360.9
-583.474
-33067.8
-587.391
-32772.8
-591.247
-32475.9
-595.041
-32177.1
-598.773
-31876.5
-602.446
-31574.1
-606.058
-31269.9
-609.612
-30964
-613.106
-30656.4
-616.542
-30347.1
-619.92
-30036.1
-623.241
-29723.5
-626.506
-29409.3
-629.714
-29093.5
-632.866
-28776.2
-635.964
-28457.4
-639.007
-28137
-641.996
-27815.2
-644.931
-27492
-647.814
-27167.3
-650.644
-26841.3
-653.422
-26513.9
-656.149
-26185.2
-658.825
-25855.1
-661.451
-25523.8
-664.027
-25191.2
-666.554
-24857.4
-669.032
-24522.3
-671.461
-24186.1
-673.843
-23848.7
-676.178
-23510.2
-678.466
-23170.5
-680.708
-22829.8
-682.904
-22488
-685.055
-22145.1
-687.161
-21801.2
-689.223
-21456.3
-691.241
-21110.4
-693.215
-20763.5
-695.147
-20415.7
-697.036
-20067
-698.883
-19717.4
-700.689
-19366.9
-702.454
-19015.5
-704.178
-18663.3
-705.861
-18310.3
-707.505
-17956.4
-709.11
-17601.8
-710.675
-17246.5
-712.202
-16890.4
-713.691
-16533.5
-715.142
-16176
-716.556
-15817.7
-717.932
-15458.8
-719.272
-15099.3
-720.576
-14739.1
-721.843
-14378.3
-723.075
-14016.9
-724.272
-13654.9
-725.434
-13292.4
-726.561
-12929.3
-727.654
-12565.7
-728.713
-12201.6
-729.739
-11837
-730.731
-11471.9
-731.69
-11106.3
-732.616
-10740.3
-733.51
-10373.9
-734.372
-10007
-735.202
-9639.75
-736.001
-9272.12
-736.768
-8904.12
-737.504
-8535.76
-738.209
-8167.07
-738.885
-7798.06
-739.529
-7428.74
-740.144
-7059.13
-740.73
-6689.24
-741.286
-6319.09
-741.813
-5948.69
-742.311
-5578.06
-742.781
-5207.2
-743.223
-4836.14
-743.636
-4464.89
-744.021
-4093.46
-744.378
-3721.86
-744.707
-3350.11
-745.007
-2978.23
-745.28
-2606.23
-745.525
-2234.11
-745.74
-1861.91
-745.927
-1489.63
-746.085
-1117.28
-746.212
-744.881
-746.31
-372.451
-746.377
-746.415
-878.594
2692.41
-1734.76
2619.03
-2547.81
2478.22
-3304.98
2295.9
-4002.18
2101.84
-4643.01
1920.95
-5236.3
1770.16
-5793.24
1656.62
-6325.07
1579.75
-6841.38
1533.84
-7349.53
1511.18
-7854.5
1504.06
-8359.35
1506.13
-8865.66
1512.75
-9374.06
1520.92
-9884.59
1528.89
-10397
1535.79
-10911
1541.26
-11426
1545.27
-11941.7
1547.9
-12457.7
1549.28
-12973.7
1549.56
-13489.4
1548.88
-14004.5
1547.35
-14518.8
1545.06
-15032
1542.1
-15544
1538.53
-16054.6
1534.41
-16563.7
1529.78
-17071
1524.68
-17576.5
1519.15
-18079.9
1513.22
-18581.3
1506.9
-19080.4
1500.22
-19577.2
1493.2
-20071.5
1485.85
-20563.3
1478.2
-21052.4
1470.24
-21538.8
1462
-22022.3
1453.48
-22502.9
1444.69
-22980.5
1435.64
-23455
1426.34
-23926.3
1416.8
-24394.4
1407.02
-24859.1
1397.01
-25320.4
1386.78
-25778.2
1376.33
-26232.5
1365.66
-26683.2
1354.78
-27130.1
1343.7
-27573.4
1332.42
-28012.8
1320.95
-28448.3
1309.29
-28879.9
1297.44
-29307.4
1285.41
-29730.9
1273.2
-30150.3
1260.82
-30565.6
1248.28
-30976.5
1235.56
-31383.2
1222.69
-31785.6
1209.66
-32183.6
1196.47
-32577.1
1183.14
-32966.2
1169.66
-33350.7
1156.04
-33730.6
1142.28
-34105.9
1128.38
-34476.6
1114.36
-34842.5
1100.2
-35203.7
1085.93
-35560.1
1071.53
-35911.7
1057.02
-36258.4
1042.39
-36600.2
1027.66
-36937.1
1012.82
-37269
997.884
-37595.9
982.846
-37917.8
967.715
-38234.6
952.492
-38546.3
937.182
-38852.9
921.789
-39154.3
906.316
-39450.6
890.767
-39741.6
875.144
-40027.5
859.453
-40308.1
843.695
-40583.4
827.876
-40853.5
811.997
-41118.2
796.063
-41377.7
780.078
-41631.8
764.044
-41880.6
747.965
-42124
731.844
-42362
715.686
-42594.6
699.492
-42821.8
683.267
-43043.7
667.014
-43260.1
650.737
-43471.1
634.437
-43676.6
618.12
-43876.8
601.787
-44071.5
585.443
-44260.7
569.09
-44444.5
552.731
-44622.9
536.37
-44795.9
520.01
-44963.3
503.653
-45125.4
487.303
-45282
470.963
-45433.2
454.636
-45579
438.324
-45719.3
422.031
-45854.2
405.759
-45983.8
389.512
-46107.9
373.291
-46226.6
357.101
-46340
340.942
-46448
324.819
-46550.7
308.733
-46648
292.688
-46740
276.686
-46826.7
260.729
-46908.1
244.82
-46984.2
228.961
-47055.1
213.154
-47120.7
197.403
-47181.1
181.709
-47236.3
166.074
-47286.3
150.501
-47331.2
134.992
-47371
119.549
-47405.6
104.173
-47435.1
88.8681
-47459.6
73.6348
-47479
58.4755
-47493.4
43.3919
-47502.8
28.386
-47507.3
13.4595
-47506.8
-1.38582
-47501.4
-16.1483
-47491.1
-30.8263
-47476
-45.4181
-47456.1
-59.9223
-47431.3
-74.3373
-47401.8
-88.6616
-47367.6
-102.894
-47328.6
-117.033
-47285
-131.077
-47236.8
-145.025
-47183.9
-158.876
-47126.5
-172.628
-47064.5
-186.281
-46998.1
-199.833
-46927.1
-213.283
-46851.7
-226.631
-46771.9
-239.875
-46687.8
-253.014
-46599.3
-266.048
-46506.5
-278.975
-46409.5
-291.795
-46308.2
-304.508
-46202.7
-317.112
-46093.1
-329.606
-45979.3
-341.991
-45861.5
-354.265
-45739.7
-366.428
-45613.8
-378.48
-45483.9
-390.419
-45350.2
-402.247
-45212.5
-413.961
-45071
-425.563
-44925.6
-437.051
-44776.5
-448.425
-44623.6
-459.685
-44467
-470.831
-44306.8
-481.863
-44142.9
-492.78
-43975.4
-503.583
-43804.4
-514.271
-43629.9
-524.845
-43451.9
-535.303
-43270.4
-545.647
-43085.6
-555.877
-42897.3
-565.992
-42705.8
-575.993
-42511
-585.879
-42312.9
-595.651
-42111.6
-605.31
-41907.1
-614.855
-41699.6
-624.286
-41488.9
-633.604
-41275.1
-642.81
-41058.3
-651.903
-40838.6
-660.884
-40615.8
-669.753
-40390.2
-678.511
-40161.7
-687.157
-39930.4
-695.694
-39696.3
-704.12
-39459.4
-712.437
-39219.7
-720.645
-38977.4
-728.744
-38732.4
-736.735
-38484.8
-744.619
-38234.6
-752.395
-37981.9
-760.066
-37726.7
-767.631
-37468.9
-775.09
-37208.7
-782.446
-36946.2
-789.697
-36681.2
-796.845
-36413.9
-803.891
-36144.3
-810.835
-35872.4
-817.678
-35598.3
-824.421
-35321.9
-831.063
-35043.4
-837.607
-34762.8
-844.052
-34480
-850.4
-34195.2
-856.652
-33908.3
-862.807
-33619.4
-868.867
-33328.5
-874.832
-33035.7
-880.704
-32740.9
-886.482
-32444.2
-892.169
-32145.7
-897.764
-31845.4
-903.268
-31543.3
-908.683
-31239.4
-914.009
-30933.7
-919.247
-30626.3
-924.397
-30317.3
-929.46
-30006.6
-934.438
-29694.3
-939.331
-29380.4
-944.139
-29064.9
-948.865
-28747.8
-953.507
-28429.3
-958.068
-28109.2
-962.548
-27787.7
-966.948
-27464.8
-971.268
-27140.4
-975.51
-26814.7
-979.674
-26487.6
-983.761
-26159.2
-987.772
-25829.4
-991.708
-25498.4
-995.569
-25166.1
-999.356
-24832.6
-1003.07
-24497.9
-1006.71
-24162
-1010.28
-23824.9
-1013.78
-23486.7
-1017.21
-23147.4
-1020.57
-22806.9
-1023.86
-22465.4
-1027.08
-22122.9
-1030.24
-21779.3
-1033.33
-21434.8
-1036.36
-21089.2
-1039.31
-20742.7
-1042.21
-20395.2
-1045.04
-20046.8
-1047.81
-19697.5
-1050.52
-19347.4
-1053.16
-18996.3
-1055.74
-18644.5
-1058.27
-18291.8
-1060.73
-17938.3
-1063.14
-17584.1
-1065.48
-17229
-1067.77
-16873.3
-1070
-16516.8
-1072.18
-16159.6
-1074.3
-15801.7
-1076.36
-15443.2
-1078.37
-15084
-1080.32
-14724.2
-1082.22
-14363.7
-1084.07
-14002.7
-1085.86
-13641.1
-1087.6
-13278.9
-1089.29
-12916.2
-1090.93
-12552.9
-1092.52
-12189.2
-1094.05
-11824.9
-1095.54
-11460.2
-1096.98
-11095
-1098.37
-10729.3
-1099.71
-10363.3
-1101
-9996.8
-1102.24
-9629.92
-1103.44
-9262.66
-1104.59
-8895.03
-1105.69
-8527.06
-1106.75
-8158.74
-1107.76
-7790.1
-1108.73
-7421.16
-1109.65
-7051.93
-1110.52
-6682.41
-1111.36
-6312.64
-1112.15
-5942.62
-1112.89
-5572.36
-1113.6
-5201.88
-1114.26
-4831.2
-1114.88
-4460.33
-1115.46
-4089.27
-1115.99
-3718.06
-1116.48
-3346.69
-1116.93
-2975.19
-1117.34
-2603.56
-1117.71
-2231.83
-1118.03
-1860.01
-1118.31
-1488.1
-1118.55
-1116.13
-1118.74
-744.118
-1118.89
-372.067
-1118.99
-1119.04
-852.804
3545.92
-1685.58
3452.49
-2480.7
3274.04
-3226.93
3042.81
-3920.14
2795.74
-4562.82
2564.32
-5162.07
2370.11
-5727.34
2222.58
-6268.31
2121.42
-6793.53
2059.76
-7309.67
2028.03
-7821.47
2016.55
-8331.91
2017.27
-8842.69
2024.23
-9354.6
2033.52
-9867.87
2042.85
-10382.4
2051.01
-10897.9
2057.5
-11414.2
2062.22
-11930.9
2065.23
-12447.6
2066.69
-12964.1
2066.77
-13480.2
2065.63
-13995.6
2063.4
-14510
2060.19
-15023.4
2056.12
-15535.5
2051.26
-16046.1
2045.68
-16555.1
2039.43
-17062.3
2032.58
-17567.6
2025.16
-18071
2017.2
-18572.2
2008.74
-19071.1
1999.8
-19567.7
1990.42
-20061.8
1980.6
-20553.4
1970.37
-21042.2
1959.75
-21528.4
1948.74
-22011.6
1937.37
-22492
1925.64
-22969.3
1913.57
-23443.5
1901.16
-23914.5
1888.43
-24382.3
1875.39
-24846.7
1862.03
-25307.8
1848.38
-25765.3
1834.44
-26219.3
1820.22
-26669.6
1805.71
-27116.3
1790.94
-27559.2
1775.9
-27998.3
1760.6
-28433.5
1745.05
-28864.8
1729.25
-29292.1
1713.21
-29715.3
1696.94
-30134.4
1680.43
-30549.3
1663.7
-30959.9
1646.75
-31366.3
1629.59
-31768.4
1612.21
-32166
1594.63
-32559.3
1576.86
-32948
1558.88
-33332.2
1540.72
-33711.9
1522.38
-34086.9
1503.86
-34457.2
1485.16
-34822.9
1466.29
-35183.7
1447.26
-35539.8
1428.07
-35891.1
1408.72
-36237.5
1389.23
-36579
1369.59
-36915.6
1349.81
-37247.2
1329.89
-37573.8
1309.84
-37895.4
1289.67
-38211.9
1269.38
-38523.3
1248.97
-38829.6
1228.45
-39130.7
1207.82
-39426.7
1187.1
-39717.5
1166.27
-40003
1145.35
-40283.4
1124.35
-40558.4
1103.26
-40828.2
1082.1
-41092.7
1060.86
-41351.9
1039.55
-41605.7
1018.17
-41854.2
996.742
-42097.3
975.253
-42335.1
953.714
-42567.4
932.129
-42794.4
910.502
-43016
888.837
-43232.2
867.139
-43442.9
845.413
-43648.2
823.663
-43848.1
801.892
-44042.5
780.106
-44231.6
758.309
-44415.1
736.504
-44593.3
714.696
-44766
692.889
-44933.2
671.087
-45095.1
649.294
-45251.4
627.515
-45402.4
605.752
-45547.9
584.01
-45688.1
562.294
-45822.8
540.605
-45952.1
518.949
-46076
497.329
-46194.6
475.749
-46307.7
454.212
-46415.6
432.722
-46518
411.283
-46615.1
389.897
-46707
368.568
-46793.5
347.3
-46874.7
326.095
-46950.6
304.958
-47021.3
283.891
-47086.8
262.897
-47147
241.98
-47202.1
221.142
-47252
200.386
-47296.7
179.715
-47336.3
159.132
-47370.8
138.64
-47400.1
118.242
-47424.5
97.9389
-47443.8
77.7348
-47458
57.6319
-47467.3
37.6324
-47471.7
17.739
-47471.1
-2.04629
-47465.6
-21.721
-47455.2
-41.2831
-47440
-60.7302
-47419.9
-80.0605
-47395.1
-99.2719
-47365.5
-118.362
-47331.1
-137.33
-47292.1
-156.173
-47248.4
-174.89
-47200.1
-193.479
-47147.2
-211.938
-47089.7
-230.266
-47027.7
-248.46
-46961.1
-266.521
-46890.1
-284.446
-46814.7
-302.234
-46734.9
-319.884
-46650.7
-337.394
-46562.1
-354.764
-46469.3
-371.991
-46372.2
-389.076
-46270.9
-406.017
-46165.4
-422.814
-46055.8
-439.464
-45942
-455.968
-45824.2
-472.325
-45702.3
-488.534
-45576.4
-504.594
-45446.6
-520.505
-45312.8
-536.266
-45175.2
-551.877
-45033.7
-567.337
-44888.3
-582.646
-44739.2
-597.803
-44586.4
-612.808
-44429.9
-627.661
-44269.6
-642.362
-44105.8
-656.909
-43938.4
-671.305
-43767.4
-685.547
-43592.9
-699.637
-43415
-713.573
-43233.6
-727.357
-43048.8
-740.988
-42860.7
-754.467
-42669.2
-767.793
-42474.4
-780.966
-42276.5
-793.988
-42075.3
-806.858
-41870.9
-819.576
-41663.4
-832.144
-41452.8
-844.56
-41239.1
-856.826
-41022.5
-868.942
-40802.8
-880.909
-40580.2
-892.727
-40354.7
-904.396
-40126.4
-915.918
-39895.1
-927.292
-39661.1
-938.519
-39424.4
-949.601
-39184.9
-960.537
-38942.7
-971.329
-38697.9
-981.976
-38450.4
-992.48
-38200.4
-1002.84
-37947.8
-1013.06
-37692.7
-1023.14
-37435.2
-1033.08
-37175.2
-1042.88
-36912.8
-1052.54
-36648
-1062.07
-36380.8
-1071.45
-36111.4
-1080.71
-35839.7
-1089.82
-35565.8
-1098.81
-35289.6
-1107.66
-35011.3
-1116.38
-34730.9
-1124.96
-34448.3
-1133.42
-34163.7
-1141.75
-33877
-1149.95
-33588.3
-1158.02
-33297.7
-1165.97
-33005
-1173.79
-32710.5
-1181.49
-32414.1
-1189.07
-32115.8
-1196.52
-31815.7
-1203.86
-31513.8
-1211.07
-31210.1
-1218.17
-30904.7
-1225.14
-30597.6
-1232.01
-30288.8
-1238.75
-29978.4
-1245.38
-29666.3
-1251.9
-29352.6
-1258.31
-29037.4
-1264.6
-28720.6
-1270.79
-28402.3
-1276.86
-28082.6
-1282.83
-27761.3
-1288.69
-27438.7
-1294.45
-27114.6
-1300.1
-26789.1
-1305.65
-26462.3
-1311.09
-26134.2
-1316.44
-25804.7
-1321.68
-25474
-1326.82
-25142
-1331.87
-24808.8
-1336.81
-24474.3
-1341.67
-24138.7
-1346.42
-23802
-1351.08
-23464
-1355.65
-23125
-1360.13
-22784.9
-1364.51
-22443.7
-1368.81
-22101.5
-1373.01
-21758.2
-1377.13
-21413.9
-1381.16
-21068.7
-1385.1
-20722.5
-1388.95
-20375.3
-1392.73
-20027.3
-1396.41
-19678.3
-1400.02
-19328.5
-1403.54
-18977.8
-1406.98
-18626.2
-1410.35
-18273.9
-1413.63
-17920.7
-1416.83
-17566.8
-1419.96
-17212.1
-1423
-16856.7
-1425.98
-16500.6
-1428.87
-16143.7
-1431.7
-15786.2
-1434.44
-15428
-1437.12
-15069.1
-1439.72
-14709.6
-1442.25
-14349.5
-1444.71
-13988.9
-1447.1
-13627.6
-1449.42
-13265.8
-1451.67
-12903.4
-1453.85
-12540.5
-1455.97
-12177.1
-1458.01
-11813.2
-1459.99
-11448.8
-1461.91
-11084
-1463.76
-10718.7
-1465.54
-10353
-1467.26
-9986.88
-1468.92
-9620.36
-1470.51
-9253.46
-1472.04
-8886.2
-1473.51
-8518.58
-1474.92
-8150.63
-1476.27
-7782.35
-1477.56
-7413.78
-1478.78
-7044.91
-1479.95
-6675.76
-1481.06
-6306.35
-1482.11
-5936.7
-1483.11
-5566.81
-1484.05
-5196.7
-1484.93
-4826.38
-1485.75
-4455.88
-1486.52
-4085.2
-1487.23
-3714.35
-1487.89
-3343.35
-1488.49
-2972.22
-1489.04
-2600.97
-1489.52
-2229.61
-1489.96
-1858.15
-1490.33
-1486.62
-1490.64
-1115.02
-1490.9
-743.378
-1491.09
-371.7
-1491.23
-1491.3
-828.694
4375.3
-1639.65
4264.13
-2417.79
4052.86
-3153.23
3778.94
-3841.94
3485.14
-4485.51
3208.59
-5089.61
2974.91
-5662.11
2795.78
-6211.34
2671.35
-6744.82
2593.94
-7268.59
2552.49
-7787.04
2535.7
-8303.08
2534
-8818.45
2540.29
-9334.06
2549.83
-9850.28
2559.76
-10367.2
2568.57
-10884.6
2575.59
-11402.3
2580.63
-11920.1
2583.72
-12437.8
2585.02
-12955
2584.7
-13471.6
2582.93
-13987.4
2579.87
-14502.2
2575.65
-15015.8
2570.37
-15528
2564.15
-16038.7
2557.05
-16547.8
2549.14
-17055
2540.48
-17560.4
2531.13
-18063.6
2521.12
-18564.7
2510.49
-19063.6
2499.28
-19560
2487.5
-20054
2475.2
-20545.4
2462.38
-21034.1
2449.07
-21520
2435.29
-22003.1
2421.06
-22483.2
2406.38
-22960.3
2391.27
-23434.3
2375.75
-23905.1
2359.83
-24372.6
2343.51
-24836.8
2326.81
-25297.6
2309.74
-25754.9
2292.31
-26208.6
2274.52
-26658.7
2256.39
-27105.1
2237.91
-27547.8
2219.11
-27986.6
2199.98
-28421.5
2180.54
-28852.5
2160.79
-29279.5
2140.74
-29702.5
2120.4
-30121.3
2099.76
-30535.9
2078.85
-30946.3
2057.66
-31352.4
2036.21
-31754.2
2014.49
-32151.6
1992.52
-32544.5
1970.3
-32933
1947.83
-33316.9
1925.13
-33696.3
1902.2
-34071
1879.05
-34441.1
1855.68
-34806.4
1832.1
-35167
1808.31
-35522.9
1784.33
-35873.9
1760.15
-36220
1735.78
-36561.2
1711.23
-36897.5
1686.51
-37228.8
1661.62
-37555.2
1636.57
-37876.5
1611.36
-38192.7
1585.99
-38503.8
1560.49
-38809.9
1534.84
-39110.7
1509.06
-39406.5
1483.16
-39697
1457.13
-39982.3
1430.99
-40262.3
1404.74
-40537.1
1378.39
-40806.6
1351.93
-41070.9
1325.39
-41329.8
1298.76
-41583.4
1272.05
-41831.6
1245.26
-42074.5
1218.41
-42312
1191.49
-42544.1
1164.51
-42770.8
1137.49
-42992.1
1110.41
-43208.1
1083.3
-43418.6
1056.15
-43623.6
1028.96
-43823.3
1001.76
-44017.5
974.533
-44206.3
947.293
-44389.6
920.044
-44567.5
892.792
-44740
865.54
-44907
838.295
-45068.6
811.062
-45224.8
783.845
-45375.5
756.649
-45520.9
729.48
-45660.8
702.342
-45795.3
675.24
-45924.4
648.178
-46048.1
621.161
-46166.4
594.194
-46279.4
567.281
-46387
540.427
-46489.3
513.636
-46586.2
486.913
-46677.9
460.26
-46764.2
433.684
-46845.2
407.188
-46921
380.775
-46991.5
354.45
-47056.8
328.217
-47116.9
302.079
-47171.7
276.041
-47221.5
250.105
-47266
224.276
-47305.4
198.557
-47339.8
172.952
-47369
147.463
-47393.2
122.094
-47412.3
96.8487
-47426.5
71.7298
-47435.6
46.7403
-47439.8
21.8833
-47439.1
-2.83832
-47433.5
-27.4218
-47423
-51.8643
-47407.6
-76.1632
-47387.4
-100.316
-47362.5
-124.32
-47332.8
-148.173
-47298.3
-171.872
-47259.2
-195.416
-47215.4
-218.802
-47167
-242.027
-47114
-265.091
-47056.4
-287.99
-46994.3
-310.723
-46927.7
-333.289
-46856.6
-355.685
-46781.1
-377.909
-46701.2
-399.961
-46616.9
-421.838
-46528.3
-443.54
-46435.5
-465.064
-46338.3
-486.409
-46237
-507.575
-46131.4
-528.56
-46021.8
-549.362
-45908
-569.982
-45790.1
-590.418
-45668.2
-610.668
-45542.3
-630.733
-45412.4
-650.611
-45278.7
-670.302
-45141
-689.805
-44999.5
-709.119
-44854.1
-728.244
-44705
-747.18
-44552.2
-765.926
-44395.7
-784.482
-44235.5
-802.847
-44071.7
-821.021
-43904.3
-839.005
-43733.3
-856.798
-43558.9
-874.399
-43380.9
-891.81
-43199.6
-909.029
-43014.8
-926.058
-42826.7
-942.896
-42635.3
-959.543
-42440.6
-976
-42242.7
-992.267
-42041.6
-1008.34
-41837.3
-1024.23
-41629.8
-1039.93
-41419.3
-1055.44
-41205.7
-1070.76
-40989.1
-1085.9
-40769.6
-1100.85
-40547.1
-1115.61
-40321.7
-1130.19
-40093.4
-1144.58
-39862.3
-1158.79
-39628.4
-1172.81
-39391.7
-1186.66
-39152.4
-1200.32
-38910.3
-1213.8
-38665.6
-1227.1
-38418.3
-1240.22
-38168.4
-1253.16
-37915.9
-1265.93
-37661
-1278.52
-37403.5
-1290.93
-37143.7
-1303.17
-36881.4
-1315.24
-36616.8
-1327.14
-36349.8
-1338.86
-36080.6
-1350.42
-35809
-1361.81
-35535.2
-1373.03
-35259.3
-1384.08
-34981.1
-1394.97
-34700.9
-1405.7
-34418.5
-1416.26
-34134
-1426.66
-33847.5
-1436.91
-33559
-1446.99
-33268.6
-1456.92
-32976.1
-1466.69
-32681.8
-1476.3
-32385.6
-1485.77
-32087.5
-1495.08
-31787.6
-1504.24
-31485.9
-1513.25
-31182.5
-1522.11
-30877.3
-1530.82
-30570.4
-1539.39
-30261.8
-1547.82
-29951.6
-1556.1
-29639.8
-1564.24
-29326.3
-1572.24
-29011.3
-1580.1
-28694.8
-1587.83
-28376.8
-1595.42
-28057.2
-1602.87
-27736.2
-1610.19
-27413.8
-1617.38
-27090
-1624.44
-26764.8
-1631.36
-26438.3
-1638.16
-26110.4
-1644.84
-25781.2
-1651.38
-25450.7
-1657.81
-25119
-1664.11
-24786.1
-1670.29
-24451.9
-1676.35
-24116.6
-1682.29
-23780.1
-1688.11
-23442.4
-1693.81
-23103.7
-1699.4
-22763.9
-1704.88
-22423
-1710.24
-22081
-1715.49
-21738
-1720.63
-21394.1
-1725.66
-21049.1
-1730.58
-20703.2
-1735.4
-20356.4
-1740.11
-20008.6
-1744.72
-19660
-1749.22
-19310.4
-1753.62
-18960
-1757.92
-18608.8
-1762.11
-18256.8
-1766.21
-17903.9
-1770.21
-17550.3
-1774.11
-17196
-1777.92
-16840.9
-1781.63
-16485
-1785.25
-16128.5
-1788.77
-15771.3
-1792.2
-15413.4
-1795.54
-15054.9
-1798.79
-14695.7
-1801.95
-14336
-1805.03
-13975.6
-1808.01
-13614.7
-1810.9
-13253.2
-1813.71
-12891.2
-1816.44
-12528.6
-1819.08
-12165.5
-1821.64
-11802
-1824.11
-11437.9
-1826.5
-11073.4
-1828.81
-10708.5
-1831.04
-10343.1
-1833.18
-9977.35
-1835.25
-9611.18
-1837.24
-9244.63
-1839.16
-8877.71
-1840.99
-8510.44
-1842.75
-8142.83
-1844.43
-7774.91
-1846.04
-7406.68
-1847.57
-7038.16
-1849.03
-6669.37
-1850.42
-6300.31
-1851.73
-5931.01
-1852.97
-5561.47
-1854.14
-5191.72
-1855.24
-4821.76
-1856.27
-4451.61
-1857.23
-4081.28
-1858.12
-3710.79
-1858.94
-3340.15
-1859.69
-2969.37
-1860.37
-2598.47
-1860.98
-2227.47
-1861.52
-1856.37
-1861.99
-1485.19
-1862.38
-1113.95
-1862.7
-742.663
-1862.94
-371.34
-1863.11
-1863.2
-804.631
5180.6
-1593.82
5053.98
-2354.83
4814.55
-3079.07
4503.85
-3762.67
4169.43
-4406.48
3853.09
-5014.84
3583.96
-5594.16
3375.8
-6151.43
3229.32
-6693.15
3136.37
-7224.69
3084.73
-7750.08
3061.78
-8272.07
3056.7
-8792.43
3061.35
-9312.15
3070.24
-9831.72
3080.02
-10351.3
3088.85
-10870.9
3095.89
-11390.4
3100.82
-11909.7
3103.66
-12428.5
3104.51
-12946.7
3103.57
-13464.1
3101
-13980.5
3096.96
-14495.8
3091.59
-15009.7
3085.02
-15522.3
3077.34
-16033.2
3068.65
-16542.4
3059.02
-17049.8
3048.51
-17555.2
3037.18
-18058.5
3025.08
-18559.6
3012.25
-19058.4
2998.73
-19554.9
2984.55
-20048.8
2969.73
-20540.1
2954.31
-21028.7
2938.3
-21514.5
2921.73
-21997.4
2904.62
-22477.4
2886.98
-22954.4
2868.83
-23428.2
2850.19
-23898.8
2831.06
-24366.2
2811.47
-24830.2
2791.42
-25290.8
2770.92
-25747.9
2749.99
-26201.4
2728.63
-26651.3
2706.86
-27097.6
2684.68
-27540
2662.11
-27978.6
2639.16
-28413.4
2615.82
-28844.1
2592.12
-29270.9
2568.05
-29693.6
2543.63
-30112.2
2518.87
-30526.6
2493.77
-30936.8
2468.35
-31342.7
2442.6
-31744.2
2416.54
-32141.4
2390.17
-32534.1
2363.5
-32922.3
2336.55
-33306
2309.31
-33685.1
2281.79
-34059.6
2254.01
-34429.5
2225.97
-34794.6
2197.67
-35155
2169.13
-35510.5
2140.34
-35861.3
2111.33
-36207.2
2082.09
-36548.2
2052.64
-36884.2
2022.97
-37215.3
1993.11
-37541.4
1963.05
-37862.4
1932.8
-38178.4
1902.37
-38489.3
1871.76
-38795.1
1840.99
-39095.7
1810.06
-39391.2
1778.98
-39681.5
1747.75
-39966.5
1716.38
-40246.3
1684.89
-40520.9
1653.27
-40790.2
1621.53
-41054.2
1589.68