/*--------------------------------*- C++ -*----------------------------------*\
| =========                 |                                                 |
| \\      /  F ield         | OpenFOAM: The Open Source CFD Toolbox           |
|  \\    /   O peration     | Version:  2212                                  |
|   \\  /    A nd           | Website:  www.openfoam.com                      |
|    \\/     M anipulation  |                                                 |
\*---------------------------------------------------------------------------*/
FoamFile
{
    version     2.0;
    format      ascii;
    arch        "LSB;label=32;scalar=64";
    class       surfaceScalarField;
    location    "150";
    object      phi;
}
// * * * * * * * * * * * * * * * * * * * * * * * * * * * * * * * * * * * * * //

dimensions      [1 0 -1 0 0 0 0];

oriented        oriented;

internalField   nonuniform List<scalar> 
408640
(
-1172.75
1171.19
-2344.99
1171.8
-3516.29
1170.86
-4685.7
1168.99
-5852.19
1166.07
-7014.71
1162.09
-8172.09
1156.94
-9323.06
1150.54
-10466.3
1142.83
-11600.6
1133.8
-12724.6
1123.51
-13837.1
1112.07
-14937.2
1099.61
-16023.9
1086.27
-17096.5
1072.12
-18154.2
1057.14
-19195.9
1041.27
-20220.9
1024.44
-21228
1006.67
-22216.5
988.018
-23185.6
968.567
-24134.5
948.412
-25062.7
927.631
-25969.5
906.304
-26854.5
884.523
-27717.4
862.386
-28557.9
839.998
-29375.8
817.459
-30171.2
794.861
-30943.9
772.284
-31694.2
749.789
-32422.1
727.421
-33127.8
705.212
-33811.4
683.188
-34473.2
661.366
-35113.4
639.759
-35732.3
618.378
-36329.9
597.229
-36906.7
576.317
-37462.8
555.644
-37998.4
535.208
-38513.8
515.005
-39009.3
495.032
-39485
475.285
-39941.2
455.763
-40378.1
436.468
-40795.9
417.4
-41194.8
398.561
-41575.2
379.954
-41937.1
361.58
-42281
343.442
-42606.9
325.541
-42915.2
307.881
-43206
290.463
-43479.7
273.292
-43736.4
256.37
-43976.5
239.701
-44200.1
223.289
-44407.6
207.138
-44599.2
191.253
-44775.2
175.635
-44935.9
160.29
-45081.4
145.221
-45212.2
130.431
-45328.4
115.921
-45430.5
101.696
-45518.6
87.7575
-45593
74.1067
-45654.1
60.7454
-45702
47.6749
-45737.3
34.896
-45760
22.4092
-45770.5
10.215
-45769.1
-1.68682
-45756.1
-13.2965
-45731.8
-24.6146
-45696.4
-35.6421
-45650.4
-46.3799
-45593.8
-56.8294
-45527.1
-66.9923
-45450.5
-76.8702
-45364.3
-86.4652
-45268.8
-95.7795
-45164.3
-104.815
-45051
-113.576
-44929.2
-122.063
-44799.1
-130.28
-44661.2
-138.23
-44515.5
-145.916
-44362.4
-153.341
-44202.2
-160.509
-44035
-167.424
-43861.1
-174.088
-43680.9
-180.507
-43494.4
-186.683
-43302
-192.621
-43104
-198.325
-42900.4
-203.798
-42691.6
-209.046
-42477.7
-214.071
-42259.1
-218.879
-42035.8
-223.473
-41808.2
-227.859
-41576.3
-232.04
-41340.5
-236.02
-41100.9
-239.805
-40857.7
-243.398
-40611.1
-246.804
-40361.3
-250.027
-40108.4
-253.072
-39852.7
-255.942
-39594.2
-258.643
-39333.2
-261.179
-39069.9
-263.553
-38804.3
-265.77
-38536.6
-267.835
-38267
-269.751
-37995.7
-271.523
-37722.7
-273.154
-37448.2
-274.649
-37172.4
-276.012
-36895.3
-277.247
-36617.1
-278.357
-36337.9
-279.347
-36057.9
-280.219
-35777
-280.979
-35495.6
-281.63
-35213.5
-282.174
-34931.1
-282.616
-34648.2
-282.96
-34365.2
-283.207
-34081.9
-283.363
-33798.6
-283.43
-33515.4
-283.412
-33232.2
-283.31
-32949.2
-283.13
-32666.4
-282.873
-32384
-282.543
-32102
-282.142
-31820.4
-281.673
-31539.4
-281.139
-31258.9
-280.543
-30979.2
-279.887
-30700.1
-279.173
-30421.8
-278.405
-30144.3
-277.585
-29867.6
-276.714
-29591.9
-275.796
-29317.2
-274.833
-29043.4
-273.826
-28770.7
-272.778
-28499.1
-271.691
-28228.6
-270.566
-27959.3
-269.407
-27691.1
-268.214
-27424.2
-266.989
-27158.5
-265.735
-26894.1
-264.453
-26631
-263.144
-26369.3
-261.81
-26108.8
-260.453
-25849.8
-259.075
-25592.2
-257.676
-25335.9
-256.259
-25081.1
-254.824
-24827.8
-253.372
-24575.9
-251.906
-24325.5
-250.426
-24076.6
-248.934
-23829.1
-247.431
-23583.2
-245.917
-23338.8
-244.394
-23096
-242.864
-22854.6
-241.326
-22614.9
-239.782
-22376.6
-238.232
-22139.9
-236.679
-21904.8
-235.122
-21671.2
-233.563
-21439.1
-232.001
-21208.7
-230.439
-20979.8
-228.876
-20752.4
-227.314
-20526.6
-225.753
-20302.4
-224.194
-20079.7
-222.637
-19858.5
-221.083
-19638.9
-219.532
-19420.9
-217.986
-19204.4
-216.444
-18989.4
-214.907
-18775.9
-213.376
-18564
-211.851
-18353.6
-210.333
-18144.7
-208.821
-17937.3
-207.317
-17731.4
-205.821
-17526.9
-204.333
-17324
-202.853
-17122.5
-201.382
-16922.4
-199.92
-16723.9
-198.467
-16526.7
-197.024
-16331
-195.591
-16136.7
-194.168
-15943.8
-192.756
-15752.3
-191.354
-15562.2
-189.964
-15373.5
-188.584
-15186.1
-187.215
-15000.1
-185.859
-14815.5
-184.513
-14632.1
-183.18
-14450.1
-181.858
-14269.4
-180.549
-14090
-179.252
-13911.8
-177.967
-13735
-176.695
-13559.3
-175.435
-13385
-174.188
-13211.8
-172.954
-13039.9
-171.732
-12869.2
-170.524
-12699.7
-169.328
-12531.3
-168.145
-12364.1
-166.976
-12198.1
-165.82
-12033.2
-164.677
-11869.4
-163.547
-11706.8
-162.43
-11545.2
-161.327
-11384.8
-160.237
-11225.4
-159.161
-11067
-158.098
-10909.7
-157.048
-10753.5
-156.012
-10598.2
-154.989
-10444
-153.979
-10290.8
-152.983
-10138.5
-152
-9987.22
-151.031
-9836.88
-150.075
-9687.48
-149.132
-9539
-148.203
-9391.44
-147.287
-9244.77
-146.384
-9098.99
-145.495
-8954.09
-144.619
-8810.04
-143.756
-8666.84
-142.906
-8524.47
-142.07
-8382.92
-141.247
-8242.18
-140.436
-8102.24
-139.639
-7963.07
-138.855
-7824.67
-138.084
-7687.03
-137.326
-7550.13
-136.581
-7413.96
-135.849
-7278.5
-135.13
-7143.75
-134.423
-7009.69
-133.729
-6876.31
-133.048
-6743.59
-132.38
-6611.52
-131.725
-6480.1
-131.082
-6349.3
-130.451
-6219.12
-129.833
-6089.54
-129.228
-5960.55
-128.635
-5832.13
-128.055
-5704.29
-127.487
-5576.99
-126.931
-5450.24
-126.388
-5324.02
-125.856
-5198.31
-125.337
-5073.11
-124.831
-4948.4
-124.336
-4824.17
-123.854
-4700.41
-123.383
-4577.1
-122.925
-4454.24
-122.478
-4331.81
-122.044
-4209.8
-121.621
-4088.2
-121.21
-3967
-120.811
-3846.18
-120.424
-3725.74
-120.049
-3605.66
-119.685
-3485.93
-119.333
-3366.54
-118.993
-3247.47
-118.665
-3128.72
-118.348
-3010.27
-118.042
-2892.12
-117.748
-2774.25
-117.466
-2656.64
-117.195
-2539.3
-116.936
-2422.2
-116.688
-2305.34
-116.452
-2188.7
-116.227
-2072.27
-116.013
-1956.04
-115.811
-1840.01
-115.62
-1724.15
-115.44
-1608.46
-115.272
-1492.93
-115.115
-1377.54
-114.969
-1262.29
-114.835
-1147.16
-114.712
-1032.14
-114.6
-917.215
-114.5
-802.383
-114.411
-687.628
-114.334
-572.937
-114.269
-458.299
-114.216
-343.7
-114.177
-229.126
-114.151
-114.563
-114.14
-114.14
-1165.02
2335.75
-2329.92
2336.23
-3493.86
2334.35
-4655.88
2330.56
-5815.09
2324.83
-6970.48
2317.04
-8121
2307
-9265.49
2294.57
-10402.8
2279.65
-11531.7
2262.21
-12651
2242.35
-13759.7
2220.26
-14856.7
2196.17
-15941.3
2170.31
-17012.4
2142.78
-18069.4
2113.56
-19111.1
2082.53
-20136.8
2049.58
-21145.4
2014.71
-22135.9
1978.03
-23107.5
1939.7
-24059.5
1899.87
-24991.1
1858.7
-25901.7
1816.35
-26790.7
1772.99
-27657.6
1728.83
-28502.2
1684.07
-29324.2
1638.92
-30123.4
1593.57
-30899.7
1548.18
-31653.3
1502.91
-32384.2
1457.83
-33092.5
1413.05
-33778.4
1368.62
-34442.1
1324.59
-35083.8
1281
-35703.8
1237.88
-36302.3
1195.26
-36879.5
1153.14
-37435.8
1111.53
-37971.5
1070.44
-38486.8
1029.84
-38981.9
989.742
-39457.2
950.126
-39912.8
910.988
-40349.1
872.326
-40766.2
834.139
-41164.5
796.428
-41544.1
759.194
-41905.4
722.438
-42248.5
686.16
-42573.7
650.364
-42881.2
615.052
-43171.4
580.229
-43444.3
545.899
-43700.4
512.069
-43939.8
478.747
-44162.8
445.938
-44369.7
413.652
-44560.7
381.896
-44736.1
350.677
-44896.2
320.002
-45041.2
289.879
-45171.4
260.314
-45287.1
231.311
-45388.6
202.877
-45476.2
175.015
-45550.1
147.729
-45610.7
121.023
-45658.3
94.8976
-45693
69.3558
-45715.3
44.3985
-45725.5
20.0261
-45723.7
-3.76144
-45710.3
-26.9647
-45685.6
-49.5849
-45650
-71.6237
-45603.5
-93.0834
-45546.7
-113.967
-45479.7
-134.276
-45402.8
-154.017
-45316.4
-173.191
-45220.6
-191.804
-45115.8
-209.861
-45002.3
-227.366
-44880.3
-244.325
-44750.1
-260.744
-44612
-276.629
-44466.2
-291.986
-44312.9
-306.822
-44152.5
-321.144
-43985.3
-334.959
-43811.3
-348.275
-43631
-361.098
-43444.4
-373.437
-43252
-385.3
-43053.9
-396.694
-42850.3
-407.628
-42641.4
-418.11
-42427.6
-428.149
-42208.9
-437.753
-41985.7
-446.93
-41758.1
-455.69
-41526.3
-464.04
-41290.5
-471.99
-41051
-479.548
-40807.9
-486.724
-40561.3
-493.525
-40311.6
-499.961
-40058.8
-506.041
-39803.2
-511.773
-39544.9
-517.165
-39284
-522.227
-39020.8
-526.966
-38755.3
-531.392
-38487.8
-535.513
-38218.4
-539.337
-37947.2
-542.873
-37674.4
-546.128
-37400.1
-549.111
-37124.5
-551.83
-36847.6
-554.293
-36569.6
-556.506
-36290.6
-558.479
-36010.8
-560.219
-35730.2
-561.732
-35449
-563.027
-35167.2
-564.111
-34884.9
-564.99
-34602.4
-565.672
-34319.5
-566.163
-34036.6
-566.47
-33753.5
-566.599
-33470.5
-566.558
-33187.6
-566.352
-32904.9
-565.987
-32622.4
-565.469
-32340.3
-564.805
-32058.5
-564
-31777.2
-563.059
-31496.5
-561.989
-31216.3
-560.793
-30936.9
-559.479
-30658.1
-558.05
-30380.1
-556.512
-30102.9
-554.869
-29826.6
-553.126
-29551.1
-551.288
-29276.7
-549.359
-29003.3
-547.344
-28730.9
-545.247
-28459.6
-543.071
-28189.4
-540.821
-27920.3
-538.501
-27652.5
-536.114
-27385.9
-533.664
-27120.5
-531.155
-26856.4
-528.59
-26593.7
-525.972
-26332.2
-523.304
-26072.1
-520.591
-25813.4
-517.833
-25556.1
-515.036
-25300.2
-512.201
-25045.7
-509.331
-24792.6
-506.428
-24541.1
-503.496
-24291
-500.537
-24042.4
-497.553
-23795.3
-494.547
-23549.7
-491.52
-23305.6
-488.475
-23063
-485.414
-22822
-482.339
-22582.5
-479.252
-22344.6
-476.154
-22108.2
-473.048
-21873.4
-469.935
-21640.1
-466.817
-21408.4
-463.696
-21178.2
-460.572
-20949.6
-457.448
-20722.5
-454.325
-20497
-451.204
-20273.1
-448.086
-20050.7
-444.973
-19829.9
-441.867
-19610.6
-438.767
-19392.8
-435.675
-19176.6
-432.593
-18961.9
-429.521
-18748.8
-426.461
-18537.1
-423.412
-18327
-420.377
-18118.4
-417.355
-17911.2
-414.348
-17705.6
-411.357
-17501.5
-408.382
-17298.8
-405.424
-17097.6
-402.483
-16897.8
-399.56
-16699.5
-396.657
-16502.6
-393.772
-16307.2
-390.908
-16113.2
-388.064
-15920.6
-385.241
-15729.3
-382.439
-15539.5
-379.659
-15351.1
-376.901
-15164
-374.166
-14978.2
-371.454
-14793.8
-368.765
-14610.7
-366.099
-14429
-363.458
-14248.5
-360.841
-14069.3
-358.248
-13891.5
-355.68
-13714.8
-353.137
-13539.5
-350.619
-13365.4
-348.126
-13192.5
-345.659
-13020.8
-343.218
-12850.3
-340.802
-12681
-338.412
-12512.9
-336.049
-12346
-333.711
-12180.2
-331.4
-12015.5
-329.116
-11852
-326.857
-11689.6
-324.626
-11528.3
-322.421
-11368
-320.242
-11208.9
-318.091
-11050.8
-315.966
-10893.7
-313.868
-10737.7
-311.796
-10582.7
-309.752
-10428.6
-307.734
-10275.6
-305.743
-10123.6
-303.779
-9972.52
-301.841
-9822.4
-299.931
-9673.21
-298.047
-9524.95
-296.189
-9377.6
-294.359
-9231.15
-292.555
-9085.59
-290.777
-8940.89
-289.026
-8797.06
-287.302
-8654.07
-285.603
-8511.91
-283.932
-8370.57
-282.286
-8230.03
-280.667
-8090.29
-279.074
-7951.33
-277.507
-7813.14
-275.966
-7675.69
-274.451
-7538.99
-272.962
-7403.02
-271.498
-7267.77
-270.061
-7133.21
-268.649
-6999.35
-267.262
-6866.16
-265.901
-6733.64
-264.566
-6601.76
-263.255
-6470.53
-261.97
-6339.93
-260.711
-6209.94
-259.476
-6080.55
-258.266
-5951.75
-257.081
-5823.52
-255.921
-5695.87
-254.786
-5568.76
-253.675
-5442.19
-252.589
-5316.16
-251.527
-5190.63
-250.49
-5065.62
-249.477
-4941.09
-248.489
-4817.04
-247.524
-4693.46
-246.584
-4570.34
-245.668
-4447.66
-244.775
-4325.41
-243.907
-4203.58
-243.062
-4082.16
-242.241
-3961.14
-241.444
-3840.5
-240.67
-3720.24
-239.92
-3600.33
-239.194
-3480.78
-238.49
-3361.56
-237.81
-3242.67
-237.154
-3124.1
-236.52
-3005.83
-235.91
-2887.85
-235.323
-2770.15
-234.759
-2652.72
-234.217
-2535.55
-233.699
-2418.62
-233.204
-2301.93
-232.731
-2185.46
-232.282
-2069.21
-231.855
-1953.15
-231.45
-1837.29
-231.069
-1721.6
-230.71
-1606.09
-230.374
-1490.72
-230.06
-1375.51
-229.769
-1260.42
-229.5
-1145.46
-229.254
-1030.61
-229.031
-915.861
-228.83
-801.198
-228.652
-686.613
-228.498
-572.093
-228.368
-457.625
-228.263
-343.195
-228.184
-228.792
-228.133
-114.399
-228.11
-228.117
-1155.67
3490.91
-2311.09
3491.14
-3465.52
3488.29
-4618.11
3482.66
-5768.02
3474.24
-6914.33
3462.85
-8056.1
3448.26
-9192.3
3430.26
-10321.9
3408.72
-11443.8
3383.62
-12557.1
3355.05
-13660.6
3323.26
-14753.5
3288.54
-15834.9
3251.16
-16903.9
3211.26
-17959.7
3168.79
-19001.3
3123.58
-20027.8
3075.48
-21038.1
3024.49
-22031.4
2970.71
-23006.6
2914.36
-23963
2855.65
-24899.6
2794.79
-25815.8
2731.99
-26710.9
2667.52
-27584.3
2601.67
-28435.4
2534.73
-29264.1
2467.02
-30069.8
2398.83
-30852.6
2330.43
-31612.2
2262.05
-32348.8
2193.86
-33062.2
2126.01
-33752.7
2058.63
-34420.4
1991.82
-35065.5
1925.66
-35688.3
1860.22
-36289.1
1795.56
-36868.1
1731.71
-37425.7
1668.7
-37962.2
1606.53
-38478
1545.18
-38973.3
1484.64
-39448.5
1424.89
-39903.8
1365.92
-40339.6
1307.73
-40756.2
1250.29
-41153.8
1193.61
-41532.7
1137.68
-41893.1
1082.5
-42235.4
1028.05
-42559.8
974.343
-42866.5
921.373
-43155.7
869.143
-43427.9
817.659
-43683.1
766.928
-43921.7
716.959
-44143.9
667.763
-44349.9
619.351
-44540.1
571.735
-44714.7
524.925
-44874
478.932
-45018.2
433.767
-45147.7
389.438
-45262.7
345.954
-45363.4
303.323
-45450.3
261.551
-45523.5
220.644
-45583.4
180.605
-45630.3
141.44
-45664.4
103.149
-45686
65.736
-45695.5
29.2003
-45693.1
-6.45786
-45679.2
-41.2394
-45653.9
-75.1461
-45617.6
-108.181
-45570.7
-140.346
-45513.3
-171.647
-45445.7
-202.088
-45368.4
-231.674
-45281.4
-260.412
-45185.2
-288.307
-45079.9
-315.368
-44966
-341.601
-44843.5
-367.016
-44712.9
-391.621
-44574.4
-415.424
-44428.2
-438.436
-44274.6
-460.667
-44113.9
-482.127
-43946.2
-502.827
-43772
-522.777
-43591.3
-541.989
-43404.5
-560.475
-43211.8
-578.247
-43013.4
-595.316
-42809.6
-611.695
-42600.5
-627.397
-42386.5
-642.434
-42167.6
-656.818
-41944.2
-670.564
-41716.4
-683.682
-41484.5
-696.188
-41248.6
-708.093
-41008.9
-719.412
-40765.7
-730.156
-40519.1
-740.34
-40269.3
-749.976
-40016.4
-759.077
-39760.7
-767.657
-39502.4
-775.728
-39241.5
-783.304
-38978.2
-790.397
-38712.8
-797.02
-38445.3
-803.186
-38175.9
-808.907
-37904.8
-814.196
-37632
-819.065
-37357.7
-823.525
-37082.2
-827.59
-36805.3
-831.27
-36527.4
-834.578
-36248.5
-837.525
-35968.8
-840.122
-35688.3
-842.381
-35407.2
-844.312
-35125.5
-845.927
-34843.4
-847.235
-34561
-848.247
-34278.3
-848.974
-33995.5
-849.425
-33712.6
-849.61
-33429.7
-849.539
-33147
-849.222
-32864.4
-848.666
-32582.1
-847.882
-32300.2
-846.878
-32018.6
-845.663
-31737.6
-844.246
-31457
-842.633
-31177.1
-840.834
-30897.8
-838.856
-30619.3
-836.707
-30341.5
-834.394
-30064.5
-831.925
-29788.4
-829.306
-29513.2
-826.545
-29239
-823.647
-28965.8
-820.621
-28693.7
-817.47
-28422.6
-814.203
-28152.7
-810.825
-27883.9
-807.342
-27616.3
-803.759
-27350
-800.081
-27084.9
-796.315
-26821.1
-792.465
-26558.5
-788.536
-26297.4
-784.532
-26037.5
-780.46
-25779.1
-776.323
-25522
-772.125
-25266.4
-767.871
-25012.2
-763.565
-24759.4
-759.21
-24508.1
-754.812
-24258.3
-750.372
-24010
-745.896
-23763.1
-741.386
-23517.8
-736.845
-23274
-732.278
-23031.7
-727.687
-22791
-723.074
-22551.8
-718.443
-22314.1
-713.797
-22078
-709.139
-21843.5
-704.47
-21610.5
-699.794
-21379
-695.112
-21149.1
-690.427
-20920.8
-685.742
-20694
-681.058
-20468.8
-676.378
-20245.1
-671.702
-20023
-667.035
-19802.5
-662.376
-19583.4
-657.727
-19366
-653.091
-19150
-648.47
-18935.6
-643.863
-18722.7
-639.274
-18511.3
-634.703
-18301.5
-630.151
-18093.1
-625.62
-17886.3
-621.112
-17680.9
-616.627
-17477
-612.166
-17274.6
-607.73
-17073.7
-603.321
-16874.2
-598.939
-16676.1
-594.585
-16479.5
-590.261
-16284.3
-585.966
-16090.6
-581.702
-15898.2
-577.469
-15707.2
-573.268
-15517.7
-569.1
-15329.5
-564.966
-15142.6
-560.865
-14957.1
-556.799
-14773
-552.767
-14590.1
-548.771
-14408.6
-544.811
-14228.4
-540.887
-14049.5
-537
-13871.8
-533.15
-13695.5
-529.338
-13520.3
-525.563
-13346.5
-521.826
-13173.8
-518.127
-13002.4
-514.467
-12832.1
-510.846
-12663.1
-507.263
-12495.2
-503.72
-12328.5
-500.216
-12162.9
-496.751
-11998.5
-493.326
-11835.2
-489.941
-11673
-486.596
-11511.9
-483.29
-11351.9
-480.024
-11192.9
-476.799
-11035.1
-473.614
-10878.2
-470.468
-10722.4
-467.363
-10567.6
-464.298
-10413.8
-461.273
-10261
-458.289
-10109.2
-455.344
-9958.34
-452.44
-9808.43
-449.576
-9659.45
-446.751
-9511.4
-443.967
-9364.26
-441.223
-9218.02
-438.519
-9072.66
-435.854
-8928.17
-433.229
-8784.53
-430.644
-8641.74
-428.099
-8499.79
-425.593
-8358.65
-423.126
-8218.31
-420.699
-8078.77
-418.311
-7940
-415.962
-7802
-413.652
-7664.76
-411.381
-7528.25
-409.148
-7392.47
-406.955
-7257.41
-404.8
-7123.04
-402.683
-6989.37
-400.605
-6856.37
-398.565
-6724.04
-396.563
-6592.35
-394.599
-6461.31
-392.673
-6330.89
-390.784
-6201.08
-388.933
-6071.88
-387.12
-5943.26
-385.344
-5815.22
-383.605
-5687.74
-381.903
-5560.82
-380.238
-5434.43
-378.61
-5308.57
-377.019
-5183.23
-375.464
-5058.39
-373.946
-4934.04
-372.464
-4810.17
-371.018
-4686.77
-369.609
-4563.82
-368.235
-4441.32
-366.898
-4319.24
-365.596
-4197.59
-364.33
-4076.34
-363.1
-3955.49
-361.905
-3835.02
-360.745
-3714.93
-359.62
-3595.2
-358.531
-3475.81
-357.477
-3356.77
-356.458
-3238.05
-355.473
-3119.64
-354.524
-3001.54
-353.609
-2883.73
-352.729
-2766.2
-351.883
-2648.93
-351.072
-2531.93
-350.295
-2415.17
-349.553
-2298.65
-348.844
-2182.35
-348.17
-2066.26
-347.53
-1950.37
-346.924
-1834.67
-346.352
-1719.15
-345.814
-1603.8
-345.31
-1488.6
-344.84
-1373.54
-344.404
-1258.62
-344.001
-1143.83
-343.632
-1029.14
-343.297
-914.554
-342.996
-800.056
-342.73
-685.634
-342.498
-571.277
-342.303
-456.972
-342.146
-342.707
-342.028
-228.465
-341.952
-114.234
-341.919
-341.929
-1143.43
4633.78
-2286.55
4633.7
-3428.64
4629.82
-4568.97
4622.42
-5706.78
4611.49
-6841.27
4596.77
-7971.62
4578.03
-9096.96
4555.02
-10216.4
4527.59
-11329.1
4495.7
-12434.1
4459.46
-13530.5
4419.11
-14617.6
4374.98
-15694.4
4327.33
-16760
4276.31
-17813.7
4221.84
-18854.4
4163.71
-19881.3
4101.75
-20893.4
4035.93
-21889.6
3966.34
-22869.1
3893.21
-23830.8
3816.77
-24773.9
3737.26
-25697.5
3654.96
-26600.7
3570.18
-27482.9
3483.27
-28343.4
3394.63
-29181.6
3304.65
-29997
3213.72
-30789.4
3122.23
-31558.4
3030.48
-32303.8
2938.76
-33025.6
2847.29
-33723.7
2756.3
-34398.4
2665.97
-35049.7
2576.45
-35677.8
2487.87
-36283
2400.35
-36865.8
2313.99
-37426.3
2228.82
-37965.1
2144.87
-38482.5
2062.15
-38978.9
1980.62
-39454.7
1900.27
-39910.3
1821.07
-40346
1743.01
-40762.2
1666.06
-41159.2
1590.21
-41537.3
1515.43
-41896.9
1441.7
-42238.2
1369
-42561.6
1297.33
-42867.3
1226.67
-43155.5
1157.01
-43426.6
1088.36
-43680.8
1020.72
-43918.3
954.103
-44139.4
888.522
-44344.4
823.988
-44533.5
760.517
-44707.1
698.122
-44865.3
636.819
-45008.5
576.619
-45136.9
517.536
-45250.9
459.582
-45350.7
402.765
-45436.5
347.094
-45508.8
292.577
-45567.7
239.219
-45613.6
187.027
-45646.8
136.001
-45667.5
86.1464
-45676.1
37.4624
-45672.8
-10.0508
-45657.9
-56.3946
-45631.8
-101.571
-45594.7
-145.585
-45546.9
-188.439
-45488.7
-230.14
-45420.3
-270.694
-45342.2
-310.108
-45254.5
-348.39
-45157.5
-385.549
-45051.6
-421.595
-44936.9
-456.538
-44813.8
-490.389
-44682.5
-523.16
-44543.3
-554.862
-44396.5
-585.51
-44242.3
-615.116
-44081
-643.693
-43912.8
-671.257
-43738
-697.823
-43556.8
-723.404
-43369.5
-748.017
-43176.3
-771.678
-42977.5
-794.403
-42773.2
-816.208
-42563.7
-837.11
-42349.2
-857.126
-42130
-876.272
-41906.2
-894.566
-41678.1
-912.026
-41445.8
-928.668
-41209.6
-944.511
-40969.6
-959.571
-40726.1
-973.866
-40479.3
-987.414
-40229.2
-1000.23
-39976.1
-1012.34
-39720.2
-1023.75
-39461.7
-1034.48
-39200.6
-1044.56
-38937.2
-1053.99
-38671.6
-1062.79
-38404
-1070.99
-38134.5
-1078.59
-37863.2
-1085.62
-37590.4
-1092.09
-37316.1
-1098.01
-37040.4
-1103.41
-36763.5
-1108.29
-36485.6
-1112.68
-36206.7
-1116.59
-35926.9
-1120.03
-35646.5
-1123.02
-35365.3
-1125.58
-35083.7
-1127.71
-34801.6
-1129.44
-34519.3
-1130.77
-34236.6
-1131.72
-33953.9
-1132.31
-33671.1
-1132.54
-33388.3
-1132.43
-33105.7
-1131.99
-32823.3
-1131.23
-32541.1
-1130.18
-32259.3
-1128.82
-31977.8
-1127.19
-31696.9
-1125.29
-31416.5
-1123.13
-31136.7
-1120.72
-30857.6
-1118.07
-30579.3
-1115.19
-30301.6
-1112.1
-30024.9
-1108.8
-29749
-1105.3
-29474
-1101.6
-29200
-1097.73
-28927
-1093.69
-28655.1
-1089.48
-28384.2
-1085.12
-28114.5
-1080.61
-27846
-1075.96
-27578.6
-1071.17
-27312.5
-1066.26
-27047.6
-1061.24
-26784
-1056.1
-26521.8
-1050.85
-26260.8
-1045.51
-26001.3
-1040.08
-25743.1
-1034.56
-25486.3
-1028.96
-25230.9
-1023.28
-24976.9
-1017.54
-24724.4
-1011.73
-24473.4
-1005.86
-24223.9
-999.94
-23975.8
-993.969
-23729.2
-987.954
-23484.2
-981.898
-23240.7
-975.807
-22998.7
-969.684
-22758.2
-963.533
-22519.3
-957.358
-22281.9
-951.162
-22046.1
-944.95
-21811.8
-938.725
-21579.1
-932.49
-21347.9
-926.248
-21118.3
-920.002
-20890.2
-913.755
-20663.7
-907.51
-20438.8
-901.27
-20215.4
-895.037
-19993.6
-888.814
-19773.3
-882.603
-19554.6
-876.406
-19337.4
-870.226
-19121.7
-864.065
-18907.6
-857.925
-18694.9
-851.807
-18483.9
-845.714
-18274.3
-839.646
-18066.2
-833.607
-17859.6
-827.598
-17654.5
-821.619
-17450.9
-815.673
-17248.8
-809.761
-17048.1
-803.884
-16848.9
-798.044
-16651.1
-792.241
-16454.8
-786.477
-16259.9
-780.753
-16066.4
-775.07
-15874.3
-769.428
-15683.6
-763.83
-15494.3
-758.275
-15306.4
-752.764
-15119.8
-747.299
-14934.5
-741.88
-14750.6
-736.507
-14568.1
-731.182
-14386.8
-725.904
-14206.9
-720.675
-14028.2
-715.495
-13850.8
-710.364
-13674.7
-705.283
-13499.8
-700.252
-13326.2
-695.272
-13153.8
-690.343
-12982.6
-685.466
-12812.6
-680.64
-12643.8
-675.866
-12476.2
-671.144
-12309.7
-666.475
-12144.4
-661.858
-11980.2
-657.294
-11817.2
-652.783
-11655.2
-648.325
-11494.3
-643.92
-11334.6
-639.568
-11175.9
-635.27
-11018.2
-631.026
-10861.6
-626.834
-10706
-622.697
-10551.5
-618.613
-10397.9
-614.582
-10245.3
-610.605
-10093.7
-606.681
-9943.11
-602.811
-9793.42
-598.995
-9644.67
-595.232
-9496.85
-591.522
-9349.93
-587.865
-9203.9
-584.261
-9058.76
-580.711
-8914.49
-577.214
-8771.08
-573.769
-8628.51
-570.377
-8486.76
-567.038
-8345.84
-563.752
-8205.72
-560.517
-8066.38
-557.335
-7927.83
-554.205
-7790.04
-551.128
-7653
-548.102
-7516.71
-545.127
-7381.13
-542.204
-7246.28
-539.333
-7112.12
-536.513
-6978.65
-533.744
-6845.85
-531.025
-6713.72
-528.358
-6582.24
-525.741
-6451.39
-523.175
-6321.17
-520.658
-6191.56
-518.192
-6062.56
-515.776
-5934.14
-513.409
-5806.29
-511.093
-5679.01
-508.825
-5552.28
-506.607
-5426.09
-504.438
-5300.42
-502.317
-5175.27
-500.246
-5050.62
-498.223
-4926.47
-496.249
-4802.79
-494.323
-4679.57
-492.445
-4556.81
-490.615
-4434.49
-488.833
-4312.61
-487.098
-4191.14
-485.411
-4070.08
-483.772
-3949.42
-482.18
-3829.13
-480.635
-3709.22
-479.136
-3589.67
-477.685
-3470.47
-476.281
-3351.61
-474.923
-3233.07
-473.611
-3114.85
-472.346
-2996.93
-471.127
-2879.3
-469.954
-2761.95
-468.828
-2644.86
-467.747
-2528.04
-466.712
-2411.46
-465.722
-2295.11
-464.779
-2178.99
-463.881
-2063.08
-463.028
-1947.37
-462.221
-1831.85
-461.459
-1716.51
-460.742
-1601.33
-460.07
-1486.31
-459.444
-1371.43
-458.862
-1256.69
-458.326
-1142.07
-457.834
-1027.56
-457.388
-913.15
-456.987
-798.828
-456.632
-684.582
-456.323
-570.401
-456.063
-456.272
-455.853
-342.182
-455.696
-228.117
-455.595
-114.062
-455.553
-455.569
-1130.74
5763.89
-2261.05
5763.37
-3390.31
5758.45
-4517.88
5749.35
-5643.07
5736.05
-6765.2
5718.26
-7883.55
5695.74
-8997.38
5668.2
-10106
5635.51
-11208.5
5597.6
-12304.3
5554.57
-13392.5
5506.66
-14472.4
5454.19
-15543.2
5397.42
-16604
5336.45
-17654.1
5271.2
-18692.5
5201.43
-19718.4
5126.94
-20730.8
5047.65
-21728.8
4963.65
-22711.4
4875.14
-23677.6
4782.34
-24626.6
4685.51
-25557.2
4584.96
-26468.7
4481.02
-27360.2
4374.08
-28230.8
4264.6
-29079.8
4153.02
-29906.5
4039.84
-30710.4
3925.51
-31491
3810.44
-32247.8
3695.02
-32980.6
3579.59
-33689.3
3464.45
-34373.8
3349.9
-35034
3236.2
-35670.2
3123.58
-36282.6
3012.25
-36871.5
2902.39
-37437.2
2794.09
-37980.2
2687.44
-38501
2582.45
-38999.9
2479.12
-39477.5
2377.44
-39934.2
2277.37
-40370.5
2178.9
-40786.9
2081.99
-41183.6
1986.59
-41561.3
1892.66
-41920.1
1800.17
-42260.6
1709.05
-42582.9
1619.29
-42887.5
1530.84
-43174.5
1443.7
-43444.4
1357.84
-43697.3
1273.26
-43933.6
1189.98
-44153.4
1108.01
-44357.1
1027.34
-44545
948.015
-44717.2
870.035
-44874.2
793.423
-45016.1
718.193
-45143.3
644.361
-45255.9
571.941
-45354.5
500.946
-45439.1
431.385
-45510.1
363.267
-45567.8
296.602
-45612.5
231.393
-45644.4
167.645
-45663.9
105.362
-45671.3
44.5437
-45666.9
-14.8097
-45650.9
-72.7001
-45623.6
-129.131
-45585.4
-184.106
-45536.5
-237.631
-45477.2
-289.714
-45407.8
-340.362
-45328.6
-389.584
-45239.9
-437.391
-45141.9
-483.794
-45035
-528.804
-44919.3
-572.436
-44795.3
-614.702
-44663.1
-655.617
-44523
-695.197
-44375.3
-733.458
-44220.3
-770.416
-44058.1
-806.09
-43889.1
-840.496
-43713.5
-873.653
-43531.6
-905.581
-43343.5
-936.299
-43149.6
-965.827
-42950.1
-994.184
-42745.1
-1021.39
-42535
-1047.47
-42319.9
-1072.44
-42100.1
-1096.33
-41875.7
-1119.15
-41647
-1140.93
-41414.2
-1161.68
-41177.5
-1181.44
-40937
-1200.22
-40693.1
-1218.05
-40445.7
-1234.94
-40195.2
-1250.92
-39941.8
-1266.01
-39685.5
-1280.23
-39426.5
-1293.61
-39165.1
-1306.16
-38901.4
-1317.91
-38635.5
-1328.87
-38367.6
-1339.08
-38097.8
-1348.55
-37826.3
-1357.29
-37553.2
-1365.34
-37278.7
-1372.71
-37002.8
-1379.42
-36725.8
-1385.49
-36447.7
-1390.95
-36168.6
-1395.8
-35888.8
-1400.07
-35608.1
-1403.78
-35326.9
-1406.95
-35045.2
-1409.59
-34763.1
-1411.71
-34480.6
-1413.35
-34198
-1414.52
-33915.2
-1415.22
-33632.4
-1415.49
-33349.6
-1415.32
-33067
-1414.75
-32784.5
-1413.79
-32502.4
-1412.44
-32220.6
-1410.73
-31939.3
-1408.67
-31658.4
-1406.27
-31378.1
-1403.55
-31098.4
-1400.52
-30819.4
-1397.19
-30541.1
-1393.58
-30263.6
-1389.69
-29986.9
-1385.55
-29711.1
-1381.16
-29436.3
-1376.53
-29162.4
-1371.68
-28889.6
-1366.61
-28617.8
-1361.34
-28347.1
-1355.87
-28077.6
-1350.22
-27809.2
-1344.4
-27542
-1338.41
-27276.1
-1332.26
-27011.4
-1325.97
-26748
-1319.53
-26486
-1312.97
-26225.2
-1306.29
-25965.9
-1299.49
-25707.9
-1292.58
-25451.3
-1285.57
-25196.1
-1278.47
-24942.4
-1271.28
-24690.2
-1264.02
-24439.4
-1256.68
-24190
-1249.27
-23942.2
-1241.8
-23695.9
-1234.28
-23451.1
-1226.71
-23207.8
-1219.09
-22966.1
-1211.43
-22725.8
-1203.74
-22487.2
-1196.02
-22250.1
-1188.27
-22014.5
-1180.51
-21780.5
-1172.72
-21548
-1164.93
-21317.1
-1157.12
-21087.7
-1149.31
-20860
-1141.5
-20633.7
-1133.7
-20409.1
-1125.9
-20185.9
-1118.11
-19964.4
-1110.33
-19744.4
-1102.56
-19525.9
-1094.82
-19308.9
-1087.09
-19093.6
-1079.39
-18879.7
-1071.72
-18667.3
-1064.07
-18456.5
-1056.46
-18247.2
-1048.87
-18039.4
-1041.33
-17833.1
-1033.82
-17628.3
-1026.34
-17424.9
-1018.91
-17223.1
-1011.52
-17022.7
-1004.18
-16823.7
-996.882
-16626.2
-989.631
-16430.1
-982.428
-16235.5
-975.275
-16042.3
-968.173
-15850.4
-961.124
-15660
-954.128
-15471
-947.187
-15283.3
-940.302
-15097
-933.473
-14912
-926.702
-14728.3
-919.988
-14546
-913.334
-14365
-906.74
-14185.3
-900.207
-14006.9
-893.734
-13829.8
-887.324
-13653.9
-880.976
-13479.3
-874.69
-13305.9
-868.468
-13133.8
-862.31
-12962.8
-856.216
-12793.1
-850.187
-12624.5
-844.222
-12457.1
-838.323
-12290.9
-832.489
-12125.8
-826.722
-11961.9
-821.02
-11799.1
-815.384
-11637.4
-809.814
-11476.8
-804.312
-11317.2
-798.875
-11158.8
-793.506
-11001.3
-788.203
-10845
-782.967
-10689.6
-777.798
-10535.3
-772.696
-10382
-767.661
-10229.6
-762.692
-10078.2
-757.791
-9927.84
-752.956
-9778.38
-748.188
-9629.85
-743.487
-9482.25
-738.853
-9335.55
-734.285
-9189.75
-729.783
-9044.83
-725.348
-8900.78
-720.979
-8757.58
-716.676
-8615.23
-712.439
-8473.7
-708.268
-8332.99
-704.162
-8193.08
-700.122
-8053.96
-696.148
-7915.62
-692.238
-7778.04
-688.393
-7641.21
-684.613
-7505.12
-680.898
-7369.76
-677.247
-7235.11
-673.66
-7101.15
-670.137
-6967.89
-666.678
-6835.3
-663.283
-6703.37
-659.951
-6572.09
-656.682
-6441.44
-653.476
-6311.42
-650.333
-6182.01
-647.252
-6053.21
-644.234
-5924.98
-641.278
-5797.34
-638.384
-5670.25
-635.551
-5543.71
-632.781
-5417.72
-630.071
-5292.25
-627.423
-5167.29
-624.835
-5042.83
-622.309
-4918.86
-619.842
-4795.37
-617.437
-4672.35
-615.091
-4549.78
-612.805
-4427.65
-610.579
-4305.95
-608.413
-4184.67
-606.305
-4063.8
-604.258
-3943.32
-602.269
-3823.22
-600.339
-3703.5
-598.467
-3584.13
-596.655
-3465.12
-594.9
-3346.44
-593.204
-3228.08
-591.566
-3110.04
-589.986
-2992.3
-588.463
-2874.85
-586.998
-2757.68
-585.591
-2640.78
-584.241
-2524.14
-582.948
-2407.74
-581.712
-2291.57
-580.534
-2175.63
-579.412
-2059.9
-578.347
-1944.37
-577.338
-1829.02
-576.387
-1713.86
-575.491
-1598.86
-574.652
-1484.02
-573.87
-1369.32
-573.143
-1254.75
-572.473
-1140.31
-571.859
-1025.97
-571.302
-911.74
-570.801
-797.595
-570.357
-683.525
-569.972
-569.52
-569.647
-455.567
-569.384
-341.653
-569.189
-227.764
-569.063
-113.884
-569.011
-569.031
-1116.73
6879.92
-2232.96
6878.89
-3348.12
6872.91
-4461.65
6862.17
-5572.97
6846.65
-6681.47
6826.04
-7786.54
6800.08
-8887.57
6768.5
-9983.93
6731.14
-11075
6687.91
-12160.1
6638.92
-13238.5
6584.36
-14309.6
6524.56
-15372.7
6459.73
-16427
6389.97
-17471.7
6315.15
-18506.1
6235.03
-19529.3
6149.37
-20540.4
6058.05
-21538.7
5961.13
-22523.1
5858.76
-23492.6
5751.15
-24446.4
5638.57
-25383.5
5521.29
-26302.9
5399.68
-27203.7
5274.12
-28084.9
5145.06
-28945.5
5012.99
-29784.8
4878.46
-30602
4741.98
-31396.2
4604.05
-32166.9
4465.14
-32913.6
4325.68
-33635.9
4186.12
-34333.4
4046.86
-35006.1
3908.28
-35653.8
3770.76
-36276.7
3634.62
-36874.9
3500.15
-37448.9
3367.57
-37998.9
3237.02
-38525.6
3108.6
-39029.3
2982.36
-39510.6
2858.3
-39970
2736.42
-40408.2
2616.69
-40825.7
2499.07
-41223.1
2383.51
-41600.7
2269.93
-41959.2
2158.25
-42299
2048.41
-42620.4
1940.31
-42923.8
1833.9
-43209.6
1729.13
-43478.1
1625.97
-43729.6
1524.39
-43964.4
1424.39
-44182.7
1325.99
-44384.9
1229.17
-44571.2
1133.97
-44741.9
1040.4
-44897.3
948.472
-45037.7
858.21
-45163.3
769.63
-45274.4
682.748
-45371.4
597.579
-45454.5
514.134
-45523.9