/*--------------------------------*- C++ -*----------------------------------*\
| =========                 |                                                 |
| \\      /  F ield         | OpenFOAM: The Open Source CFD Toolbox           |
|  \\    /   O peration     | Version:  2212                                  |
|   \\  /    A nd           | Website:  www.openfoam.com                      |
|    \\/     M anipulation  |                                                 |
\*---------------------------------------------------------------------------*/
FoamFile
{
    version     2.0;
    format      ascii;
    arch        "LSB;label=32;scalar=64";
    class       volScalarField;
    location    "620";
    object      p_rgh_0;
}
// * * * * * * * * * * * * * * * * * * * * * * * * * * * * * * * * * * * * * //

dimensions      [1 -1 -2 0 0 0 0];

internalField   nonuniform List<scalar> 
204800
(
45.779
45.7736
45.7628
45.7467
45.7249
45.6975
45.6643
45.6257
45.5815
45.5323
45.4781
45.4192
45.3556
45.2877
45.2154
45.139
45.0585
44.974
44.8855
44.7933
44.6973
44.5977
44.4945
44.3879
44.2779
44.1647
44.0482
43.9287
43.8062
43.6808
43.5526
43.4217
43.2882
43.1522
43.0137
42.8729
42.73
42.5848
42.4377
42.2887
42.1379
41.9853
41.8312
41.6755
41.5184
41.36
41.2004
41.0397
40.8779
40.7152
40.5517
40.3874
40.2225
40.057
39.891
39.7247
39.5581
39.3913
39.2244
39.0574
38.8905
38.7238
38.5572
38.391
38.2252
38.0598
37.8949
37.7306
37.5671
37.4042
37.2422
37.081
36.9208
36.7617
36.6035
36.4466
36.2908
36.1362
35.983
35.8311
35.6806
35.5315
35.384
35.238
35.0936
34.9508
34.8098
34.6704
34.5328
34.3969
34.2629
34.1307
34.0004
33.872
33.7456
33.6211
33.4986
33.3781
33.2596
33.1432
33.0288
32.9165
32.8063
32.6981
32.5921
32.4882
32.3865
32.2868
32.1893
32.094
32.0007
31.9097
31.8207
31.7339
31.6493
31.5668
31.4864
31.4081
31.332
31.258
31.1861
31.1162
31.0485
30.9828
30.9192
30.8577
30.7981
30.7406
30.6851
30.6316
30.58
30.5304
30.4828
30.437
30.3932
30.3512
30.311
30.2727
30.2363
30.2016
30.1686
30.1375
30.108
30.0802
30.0542
30.0297
30.0069
29.9857
29.9661
29.948
29.9315
29.9165
29.9029
29.8908
29.8802
29.8709
29.863
29.8565
29.8513
29.8474
29.8447
29.8434
29.8432
29.8442
29.8465
29.8498
29.8543
29.8599
29.8666
29.8743
29.883
29.8927
29.9034
29.9151
29.9276
29.9411
29.9554
29.9706
29.9867
30.0035
30.0211
30.0395
30.0586
30.0785
30.099
30.1202
30.142
30.1645
30.1875
30.2112
30.2354
30.2602
30.2855
30.3112
30.3375
30.3642
30.3914
30.419
30.447
30.4754
30.5041
30.5332
30.5626
30.5924
30.6224
30.6527
30.6833
30.7141
30.7452
30.7764
30.8079
30.8396
30.8714
30.9033
30.9354
30.9676
31
31.0324
31.0649
31.0974
31.13
31.1627
31.1954
31.228
31.2607
31.2934
31.326
31.3586
31.3912
31.4237
31.4561
31.4885
31.5207
31.5529
31.5849
31.6168
31.6486
31.6803
31.7117
31.7431
31.7742
31.8052
31.8359
31.8665
31.8969
31.927
31.957
31.9867
32.0161
32.0453
32.0743
32.103
32.1314
32.1595
32.1874
32.2149
32.2422
32.2692
32.2958
32.3222
32.3482
32.3739
32.3992
32.4242
32.4489
32.4732
32.4972
32.5208
32.544
32.5669
32.5894
32.6115
32.6332
32.6545
32.6755
32.696
32.7162
32.7359
32.7553
32.7742
32.7927
32.8108
32.8284
32.8456
32.8624
32.8788
32.8948
32.9102
32.9253
32.9399
32.9541
32.9678
32.9811
32.9939
33.0062
33.0181
33.0296
33.0405
33.0511
33.0611
33.0707
33.0798
33.0884
33.0966
33.1043
33.1115
33.1183
33.1245
33.1303
33.1356
33.1404
33.1448
33.1487
33.1521
33.155
33.1574
33.1593
33.1608
33.1617
33.1622
45.7171
45.7101
45.6964
45.6766
45.6509
45.6199
45.5836
45.5425
45.4965
45.446
45.3909
45.3314
45.2675
45.1994
45.127
45.0506
44.9701
44.8856
44.7973
44.7051
44.6093
44.5098
44.4068
44.3003
44.1905
44.0774
43.9611
43.8418
43.7195
43.5943
43.4663
43.3356
43.2023
43.0665
42.9283
42.7877
42.645
42.5001
42.3533
42.2045
42.0539
41.9016
41.7477
41.5923
41.4355
41.2774
41.1181
40.9576
40.7961
40.6337
40.4705
40.3065
40.1418
39.9766
39.811
39.645
39.4786
39.3121
39.1455
38.9788
38.8123
38.6458
38.4796
38.3136
38.1481
37.983
37.8184
37.6545
37.4912
37.3286
37.1669
37.006
36.8461
36.6872
36.5294
36.3727
36.2172
36.0629
35.91
35.7584
35.6081
35.4594
35.3121
35.1664
35.0223
34.8798
34.739
34.5998
34.4625
34.3269
34.1931
34.0612
33.9312
33.803
33.6768
33.5526
33.4303
33.31
33.1918
33.0756
32.9614
32.8493
32.7393
32.6314
32.5256
32.4219
32.3203
32.2209
32.1236
32.0284
31.9354
31.8445
31.7557
31.6691
31.5846
31.5023
31.4221
31.344
31.268
31.1941
31.1224
31.0527
30.9851
30.9196
30.8561
30.7947
30.7352
30.6779
30.6225
30.5691
30.5176
30.4681
30.4206
30.3749
30.3312
30.2893
30.2492
30.211
30.1746
30.14
30.1072
30.0761
30.0467
30.019
29.993
29.9686
29.9459
29.9247
29.9051
29.8871
29.8706
29.8557
29.8422
29.8301
29.8195
29.8102
29.8024
29.7959
29.7907
29.7868
29.7842
29.7828
29.7827
29.7838
29.786
29.7894
29.7938
29.7994
29.8061
29.8138
29.8225
29.8322
29.8429
29.8546
29.8671
29.8806
29.8949
29.9101
29.9261
29.943
29.9606
29.9789
29.998
30.0178
30.0383
30.0595
30.0813
30.1037
30.1268
30.1504
30.1746
30.1993
30.2245
30.2503
30.2765
30.3032
30.3303
30.3579
30.3858
30.4142
30.4429
30.4719
30.5013
30.531
30.561
30.5912
30.6218
30.6526
30.6836
30.7148
30.7462
30.7778
30.8095
30.8414
30.8735
30.9057
30.9379
30.9703
31.0027
31.0352
31.0678
31.1004
31.133
31.1656
31.1982
31.2309
31.2635
31.296
31.3285
31.361
31.3933
31.4256
31.4578
31.4899
31.5219
31.5538
31.5855
31.6171
31.6485
31.6798
31.7109
31.7418
31.7725
31.803
31.8333
31.8634
31.8933
31.9229
31.9523
31.9815
32.0104
32.039
32.0674
32.0955
32.1233
32.1508
32.178
32.205
32.2316
32.2579
32.2838
32.3095
32.3348
32.3597
32.3844
32.4086
32.4326
32.4561
32.4793
32.5021
32.5246
32.5467
32.5683
32.5896
32.6106
32.6311
32.6512
32.6709
32.6902
32.7091
32.7275
32.7456
32.7632
32.7804
32.7972
32.8135
32.8294
32.8449
32.8599
32.8745
32.8886
32.9023
32.9156
32.9284
32.9407
32.9526
32.964
32.9749
32.9854
32.9955
33.005
33.0141
33.0227
33.0309
33.0386
33.0458
33.0525
33.0588
33.0646
33.0699
33.0747
33.079
33.0829
33.0863
33.0892
33.0916
33.0935
33.095
33.0959
33.0964
45.7009
45.6941
45.6805
45.6608
45.6352
45.6042
45.568
45.5269
45.4809
45.4303
45.3752
45.3156
45.2516
45.1833
45.1109
45.0343
44.9538
44.8692
44.7808
44.6886
44.5926
44.4931
44.39
44.2835
44.1736
44.0604
43.9441
43.8248
43.7024
43.5772
43.4491
43.3184
43.185
43.0492
42.9109
42.7704
42.6276
42.4827
42.3358
42.187
42.0364
41.8841
41.7302
41.5747
41.4179
41.2598
41.1004
40.9399
40.7784
40.616
40.4527
40.2887
40.1241
39.9589
39.7932
39.6272
39.4609
39.2943
39.1277
38.9611
38.7945
38.628
38.4618
38.2958
38.1303
37.9652
37.8006
37.6367
37.4734
37.3109
37.1492
36.9883
36.8284
36.6695
36.5117
36.3551
36.1996
36.0453
35.8924
35.7408
35.5906
35.4418
35.2946
35.1489
35.0048
34.8624
34.7216
34.5825
34.4451
34.3096
34.1758
34.044
33.9139
33.7858
33.6597
33.5354
33.4132
33.293
33.1748
33.0586
32.9445
32.8324
32.7224
32.6146
32.5088
32.4052
32.3036
32.2042
32.107
32.0118
31.9188
31.828
31.7393
31.6527
31.5683
31.486
31.4058
31.3278
31.2518
31.178
31.1063
31.0366
30.9691
30.9036
30.8402
30.7788
30.7194
30.6621
30.6067
30.5534
30.502
30.4525
30.405
30.3594
30.3157
30.2738
30.2339
30.1957
30.1593
30.1248
30.092
30.0609
30.0316
30.0039
29.9779
29.9536
29.9309
29.9098
29.8903
29.8723
29.8559
29.8409
29.8274
29.8154
29.8048
29.7956
29.7878
29.7814
29.7762
29.7724
29.7698
29.7685
29.7684
29.7694
29.7717
29.7751
29.7796
29.7853
29.792
29.7997
29.8085
29.8182
29.8289
29.8406
29.8532
29.8667
29.881
29.8963
29.9123
29.9292
29.9468
29.9652
29.9843
30.0041
30.0246
30.0458
30.0677
30.0901
30.1132
30.1368
30.161
30.1858
30.211
30.2368
30.2631
30.2898
30.3169
30.3445
30.3725
30.4008
30.4295
30.4586
30.488
30.5177
30.5477
30.578
30.6086
30.6394
30.6704
30.7016
30.733
30.7646
30.7964
30.8283
30.8604
30.8926
30.9248
30.9572
30.9897
31.0222
31.0548
31.0874
31.12
31.1526
31.1853
31.2179
31.2505
31.2831
31.3156
31.348
31.3804
31.4127
31.4449
31.477
31.509
31.5409
31.5726
31.6042
31.6356
31.6669
31.698
31.7289
31.7596
31.7902
31.8205
31.8506
31.8805
31.9101
31.9395
31.9687
31.9976
32.0262
32.0546
32.0827
32.1105
32.138
32.1653
32.1922
32.2188
32.2451
32.2711
32.2967
32.322
32.347
32.3716
32.3959
32.4198
32.4434
32.4666
32.4894
32.5119
32.5339
32.5556
32.5769
32.5978
32.6183
32.6384
32.6582
32.6775
32.6963
32.7148
32.7329
32.7505
32.7677
32.7845
32.8008
32.8167
32.8322
32.8472
32.8618
32.8759
32.8896
32.9029
32.9157
32.928
32.9399
32.9513
32.9622
32.9727
32.9828
32.9923
33.0014
33.01
33.0182
33.0259
33.0331
33.0398
33.0461
33.0519
33.0572
33.062
33.0663
33.0702
33.0736
33.0765
33.0789
33.0808
33.0823
33.0832
33.0837
45.6407
45.6334
45.6188
45.5977
45.5704
45.5378
45.5
45.4575
45.4104
45.3588
45.3029
45.2427
45.1782
45.1096
45.0369
44.9601
44.8794
44.7947
44.7062
44.6139
44.518
44.4184
44.3153
44.2088
44.099
43.9859
43.8696
43.7503
43.628
43.5028
43.3749
43.2442
43.111
42.9752
42.8371
42.6966
42.5539
42.4092
42.2624
42.1137
41.9632
41.8111
41.6573
41.502
41.3453
41.1873
41.0281
40.8678
40.7065
40.5442
40.3811
40.2173
40.0528
39.8878
39.7223
39.5564
39.3903
39.2239
39.0575
38.891
38.7246
38.5583
38.3923
38.2266
38.0612
37.8963
37.732
37.5682
37.4051
37.2428
37.0813
36.9206
36.7609
36.6023
36.4446
36.2882
36.1329
35.9788
35.8261
35.6747
35.5247
35.3762
35.2291
35.0836
34.9397
34.7975
34.6569
34.518
34.3809
34.2455
34.112
33.9803
33.8504
33.7225
33.5965
33.4725
33.3505
33.2304
33.1124
32.9964
32.8825
32.7706
32.6608
32.5531
32.4475
32.344
32.2427
32.1435
32.0464
31.9514
31.8586
31.7679
31.6793
31.5929
31.5086
31.4265
31.3465
31.2686
31.1928
31.1191
31.0475
30.9781
30.9106
30.8453
30.782
30.7207
30.6615
30.6043
30.5491
30.4958
30.4446
30.3952
30.3478
30.3023
30.2587
30.217
30.1771
30.139
30.1028
30.0683
30.0356
30.0046
29.9754
29.9478
29.922
29.8977
29.8751
29.8541
29.8346
29.8167
29.8004
29.7855
29.7721
29.7601
29.7496
29.7405
29.7327
29.7263
29.7212
29.7174
29.7149
29.7136
29.7136
29.7147
29.717
29.7205
29.725
29.7307
29.7374
29.7452
29.754
29.7638
29.7745
29.7862
29.7988
29.8124
29.8268
29.842
29.858
29.8749
29.8926
29.911
29.9301
29.9499
29.9705
29.9917
30.0135
30.036
30.059
30.0827
30.1069
30.1316
30.1569
30.1827
30.2089
30.2356
30.2628
30.2903
30.3183
30.3466
30.3754
30.4044
30.4338
30.4635
30.4935
30.5238
30.5543
30.5851
30.6161
30.6473
30.6787
30.7103
30.7421
30.774
30.806
30.8381
30.8704
30.9028
30.9352
30.9677
31.0002
31.0328
31.0654
31.098
31.1306
31.1632
31.1958
31.2284
31.2608
31.2933
31.3256
31.3579
31.3901
31.4222
31.4541
31.486
31.5177
31.5492
31.5806
31.6119
31.6429
31.6738
31.7045
31.735
31.7653
31.7954
31.8252
31.8549
31.8842
31.9134
31.9422
31.9709
31.9992
32.0273
32.0551
32.0825
32.1097
32.1366
32.1632
32.1895
32.2154
32.241
32.2663
32.2913
32.3159
32.3401
32.364
32.3876
32.4107
32.4335
32.456
32.478
32.4997
32.5209
32.5418
32.5623
32.5824
32.6021
32.6214
32.6402
32.6587
32.6767
32.6943
32.7115
32.7282
32.7446
32.7605
32.7759
32.7909
32.8055
32.8196
32.8333
32.8465
32.8593
32.8716
32.8835
32.8949
32.9058
32.9163
32.9263
32.9359
32.945
32.9536
32.9617
32.9694
32.9766
32.9833
32.9896
32.9953
33.0006
33.0054
33.0098
33.0136
33.017
33.0199
33.0223
33.0243
33.0257
33.0267
33.0272
45.614
45.6069
45.5924
45.5717
45.5447
45.5123
45.4747
45.4323
45.3851
45.3335
45.2775
45.2171
45.1525
45.0837
45.0108
44.9339
44.853
44.7682
44.6795
44.5871
44.4909
44.3912
44.288
44.1814
44.0714
43.9582
43.8418
43.7224
43.6
43.4747
43.3466
43.2159
43.0825
42.9467
42.8084
42.6679
42.5251
42.3803
42.2334
42.0847
41.9341
41.7819
41.628
41.4727
41.3159
41.1579
40.9986
40.8382
40.6768
40.5145
40.3514
40.1875
40.023
39.8579
39.6924
39.5265
39.3603
39.1939
39.0275
38.861
38.6946
38.5283
38.3622
38.1965
38.0311
37.8662
37.7018
37.538
37.375
37.2126
37.0511
36.8905
36.7308
36.5721
36.4145
36.258
36.1028
35.9487
35.796
35.6447
35.4947
35.3462
35.1992
35.0537
34.9098
34.7676
34.6271
34.4882
34.3511
34.2158
34.0823
33.9506
33.8209
33.693
33.5671
33.4431
33.3211
33.2011
33.0831
32.9672
32.8533
32.7415
32.6318
32.5242
32.4186
32.3152
32.2139
32.1148
32.0178
31.9229
31.8301
31.7395
31.651
31.5647
31.4805
31.3984
31.3185
31.2406
31.1649
31.0913
31.0198
30.9504
30.8831
30.8178
30.7546
30.6934
30.6343
30.5772
30.522
30.4689
30.4177
30.3684
30.3211
30.2757
30.2322
30.1905
30.1507
30.1127
30.0765
30.0422
30.0095
29.9786
29.9495
29.922
29.8962
29.872
29.8495
29.8285
29.8092
29.7914
29.7751
29.7603
29.7469
29.7351
29.7246
29.7156
29.7079
29.7015
29.6965
29.6928
29.6903
29.6891
29.6892
29.6904
29.6927
29.6963
29.7009
29.7066
29.7134
29.7212
29.7301
29.7399
29.7508
29.7625
29.7752
29.7888
29.8032
29.8185
29.8346
29.8516
29.8693
29.8877
29.9069
29.9268
29.9474
29.9686
29.9905
30.013
30.0362
30.0599
30.0841
30.1089
30.1342
30.16
30.1863
30.2131
30.2402
30.2679
30.2959
30.3243
30.353
30.3821
30.4115
30.4413
30.4713
30.5016
30.5322
30.563
30.594
30.6253
30.6567
30.6883
30.7201
30.7521
30.7841
30.8163
30.8486
30.881
30.9134
30.946
30.9785
31.0111
31.0438
31.0764
31.109
31.1417
31.1743
31.2068
31.2393
31.2718
31.3042
31.3365
31.3687
31.4008
31.4327
31.4646
31.4963
31.5279
31.5593
31.5906
31.6217
31.6526
31.6833
31.7138
31.7441
31.7742
31.804
31.8337
31.8631
31.8922
31.9211
31.9497
31.9781
32.0062
32.034
32.0615
32.0887
32.1156
32.1422
32.1684
32.1944
32.22
32.2453
32.2703
32.2949
32.3191
32.343
32.3666
32.3898
32.4126
32.435
32.4571
32.4787
32.5
32.5209
32.5414
32.5615
32.5812
32.6004
32.6193
32.6378
32.6558
32.6734
32.6906
32.7074
32.7237
32.7396
32.755
32.7701
32.7846
32.7988
32.8124
32.8257
32.8384
32.8508
32.8626
32.874
32.885
32.8955
32.9055
32.915
32.9241
32.9327
32.9409
32.9486
32.9558
32.9625
32.9687
32.9745
32.9798
32.9846
32.9889
32.9928
32.9962
32.9991
33.0015
33.0034
33.0049
33.0058
33.0063
45.5568
45.5496
45.5348
45.5136
45.4861
45.453
45.4147
45.3715
45.3237
45.2714
45.2148
45.1539
45.0888
45.0197
44.9464
44.8692
44.788
44.7029
44.6141
44.5215
44.4252
44.3254
44.222
44.1153
44.0052
43.892
43.7755
43.656
43.5336
43.4083
43.2802
43.1494
43.016
42.8802
42.7419
42.6013
42.4586
42.3137
42.1669
42.0182
41.8676
41.7154
41.5616
41.4063
41.2496
41.0916
40.9324
40.772
40.6107
40.4484
40.2853
40.1215
39.9571
39.7921
39.6266
39.4608
39.2947
39.1284
38.962
38.7956
38.6293
38.4631
38.2972
38.1315
37.9662
37.8014
37.6372
37.4735
37.3106
37.1483
36.9869
36.8264
36.6669
36.5083
36.3509
36.1945
36.0394
35.8855
35.7329
35.5817
35.4318
35.2835
35.1366
34.9913
34.8476
34.7055
34.5651
34.4264
34.2894
34.1542
34.0209
33.8894
33.7598
33.6321
33.5063
33.3825
33.2606
33.1408
33.023
32.9072
32.7935
32.6818
32.5722
32.4648
32.3594
32.2562
32.155
32.056
31.9591
31.8644
31.7718
31.6813
31.593
31.5068
31.4228
31.3409
31.2611
31.1834
31.1078
31.0344
30.963
30.8938
30.8266
30.7614
30.6984
30.6373
30.5783
30.5213
30.4663
30.4133
30.3622
30.3131
30.2659
30.2207
30.1773
30.1357
30.0961
30.0582
30.0221
29.9879
29.9554
29.9246
29.8956
29.8682
29.8425
29.8184
29.796
29.7752
29.7559
29.7382
29.722
29.7073
29.6941
29.6823
29.672
29.663
29.6554
29.6492
29.6442
29.6406
29.6382
29.6371
29.6372
29.6385
29.6409
29.6445
29.6492
29.655
29.6619
29.6698
29.6787
29.6887
29.6995
29.7114
29.7241
29.7377
29.7522
29.7676
29.7838
29.8007
29.8185
29.837
29.8562
29.8762
29.8968
29.9181
29.94
29.9626
29.9857
30.0095
30.0338
30.0586
30.0839
30.1098
30.1361
30.1629
30.1901
30.2177
30.2458
30.2742
30.303
30.3321
30.3615
30.3913
30.4214
30.4517
30.4823
30.5131
30.5441
30.5754
30.6069
30.6385
30.6703
30.7022
30.7343
30.7665
30.7988
30.8312
30.8637
30.8962
30.9288
30.9614
30.994
31.0266
31.0593
31.0919
31.1245
31.1571
31.1896
31.222
31.2544
31.2867
31.3189
31.351
31.383
31.4148
31.4465
31.4781
31.5095
31.5408
31.5718
31.6027
31.6335
31.664
31.6943
31.7243
31.7542
31.7838
31.8132
31.8423
31.8712
31.8998
31.9282
31.9562
31.984
32.0115
32.0387
32.0656
32.0922
32.1185
32.1444
32.17
32.1953
32.2202
32.2448
32.2691
32.293
32.3165
32.3397
32.3625
32.3849
32.4069
32.4286
32.4499
32.4707
32.4912
32.5113
32.531
32.5503
32.5691
32.5876
32.6056
32.6232
32.6404
32.6571
32.6734
32.6893
32.7048
32.7198
32.7343
32.7485
32.7621
32.7753
32.7881
32.8004
32.8123
32.8237
32.8346
32.8451
32.8551
32.8647
32.8737
32.8824
32.8905
32.8982
32.9054
32.9121
32.9183
32.9241
32.9294
32.9342
32.9385
32.9424
32.9458
32.9487
32.9511
32.953
32.9545
32.9554
32.9559
45.5234
45.5163
45.5019
45.481
45.4538
45.421
45.3829
45.3398
45.292
45.2397
45.1829
45.1219
45.0566
44.9873
44.9138
44.8363
44.7549
44.6696
44.5805
44.4877
44.3912
44.2911
44.1876
44.0807
43.9704
43.8569
43.7403
43.6206
43.498
43.3725
43.2442
43.1133
42.9798
42.8437
42.7053
42.5646
42.4217
42.2767
42.1298
41.9809
41.8302
41.6779
41.524
41.3685
41.2117
41.0536
40.8942
40.7338
40.5724
40.41
40.2468
40.0829
39.9184
39.7533
39.5878
39.4219
39.2557
39.0894
38.9229
38.7564
38.5901
38.4238
38.2578
38.0921
37.9268
37.762
37.5977
37.434
37.271
37.1087
36.9473
36.7868
36.6272
36.4687
36.3112
36.1548
35.9997
35.8458
35.6932
35.542
35.3922
35.2438
35.097
34.9517
34.808
34.666
34.5256
34.3869
34.25
34.1149
33.9816
33.8501
33.7206
33.5929
33.4672
33.3434
33.2217
33.1019
32.9841
32.8684
32.7548
32.6432
32.5337
32.4263
32.321
32.2179
32.1168
32.0179
31.9211
31.8265
31.7339
31.6436
31.5554
31.4693
31.3853
31.3035
31.2238
31.1462
31.0708
30.9974
30.9262
30.857
30.7899
30.7249
30.662
30.601
30.5421
30.4853
30.4304
30.3775
30.3265
30.2775
30.2304
30.1853
30.142
30.1006
30.061
30.0233
29.9873
29.9532
29.9208
29.8901
29.8612
29.834
29.8084
29.7844
29.7621
29.7414
29.7223
29.7046
29.6886
29.674
29.6609
29.6492
29.639
29.6301
29.6226
29.6165
29.6117
29.6081
29.6059
29.6048
29.605
29.6064
29.609
29.6127
29.6175
29.6234
29.6304
29.6384
29.6474
29.6574
29.6684
29.6803
29.6931
29.7068
29.7214
29.7369
29.7531
29.7702
29.788
29.8066
29.8259
29.8459
29.8667
29.888
29.91
29.9327
29.9559
29.9797
30.0041
30.029
30.0544
30.0803
30.1067
30.1336
30.1609
30.1886
30.2167
30.2451
30.274
30.3032
30.3327
30.3625
30.3926
30.423
30.4536
30.4845
30.5156
30.5469
30.5784
30.6101
30.642
30.674
30.7061
30.7383
30.7707
30.8031
30.8356
30.8682
30.9008
30.9335
30.9661
30.9988
31.0315
31.0642
31.0968
31.1294
31.1619
31.1944
31.2268
31.2592
31.2914
31.3235
31.3555
31.3874
31.4192
31.4508
31.4822
31.5135
31.5446
31.5755
31.6063
31.6368
31.6671
31.6972
31.7271
31.7567
31.7862
31.8153
31.8442
31.8728
31.9012
31.9293
31.9571
31.9846
32.0118
32.0387
32.0653
32.0916
32.1176
32.1432
32.1685
32.1935
32.2181
32.2423
32.2663
32.2898
32.313
32.3358
32.3582
32.3803
32.4019
32.4232
32.4441
32.4646
32.4847
32.5044
32.5237
32.5425
32.561
32.579
32.5966
32.6138
32.6306
32.6469
32.6628
32.6782
32.6933
32.7078
32.722
32.7356
32.7489
32.7616
32.774
32.7858
32.7972
32.8082
32.8186
32.8287
32.8382
32.8473
32.8559
32.8641
32.8717
32.8789
32.8856
32.8919
32.8977
32.903
32.9078
32.9121
32.916
32.9193
32.9222
32.9247
32.9266
32.928
32.929
32.9295
45.4694
45.4622
45.4477
45.4268
45.3994
45.3664
45.328
45.2846
45.2364
45.1836
45.1264
45.065
44.9993
44.9295
44.8557
44.7779
44.6961
44.6106
44.5212
44.4281
44.3314
44.2311
44.1274
44.0202
43.9098
43.7961
43.6793
43.5595
43.4367
43.3111
43.1827
43.0516
42.918
42.7818
42.6433
42.5025
42.3595
42.2144
42.0673
41.9184
41.7677
41.6152
41.4612
41.3057
41.1488
40.9907
40.8313
40.6708
40.5093
40.3469
40.1837
40.0198
39.8552
39.6901
39.5246
39.3587
39.1925
39.0261
38.8597
38.6932
38.5269
38.3606
38.1946
38.029
37.8637
37.6989
37.5346
37.371
37.208
37.0458
36.8844
36.724
36.5645
36.406
36.2486
36.0923
35.9372
35.7834
35.6309
35.4798
35.33
35.1818
35.035
34.8898
34.7462
34.6043
34.464
34.3254
34.1886
34.0536
33.9204
33.7891
33.6597
33.5321
33.4065
33.2829
33.1612
33.0416
32.924
32.8084
32.6949
32.5835
32.4741
32.3668
32.2617
32.1587
32.0578
31.959
31.8624
31.7679
31.6755
31.5853
31.4972
31.4113
31.3275
31.2458
31.1663
31.0888
31.0135
30.9403
30.8692
30.8002
30.7333
30.6685
30.6056
30.5449
30.4861
30.4294
30.3747
30.3219
30.2711
30.2223
30.1753
30.1303
30.0872
30.0459
30.0065
29.9689
29.9331
29.8991
29.8669
29.8364
29.8076
29.7805
29.755
29.7312
29.709
29.6885
29.6695
29.652
29.636
29.6216
29.6086
29.5971
29.5869
29.5782
29.5709
29.5648
29.5601
29.5567
29.5546
29.5537
29.554
29.5555
29.5582
29.562
29.5669
29.5729
29.58
29.5881
29.5972
29.6073
29.6184
29.6304
29.6433
29.6571
29.6718
29.6874
29.7037
29.7209
29.7388
29.7574
29.7768
29.797
29.8177
29.8392
29.8613
29.884
29.9073
29.9312
29.9556
29.9806
30.0061
30.0321
30.0585
30.0854
30.1128
30.1405
30.1687
30.1972
30.2261
30.2554
30.2849
30.3148
30.345
30.3754
30.4061
30.437
30.4682
30.4995
30.5311
30.5628
30.5947
30.6267
30.6589
30.6912
30.7236
30.756
30.7886
30.8212
30.8538
30.8865
30.9192
30.9519
30.9846
31.0173
31.05
31.0826
31.1152
31.1477
31.1801
31.2125
31.2447
31.2768
31.3089
31.3408
31.3725
31.4042
31.4356
31.4669
31.498
31.529
31.5597
31.5903
31.6206
31.6507
31.6806
31.7103
31.7397
31.7689
31.7978
31.8264
31.8548
31.8829
31.9107
31.9382
31.9654
31.9923
32.0189
32.0452
32.0712
32.0968
32.1221
32.1471
32.1717
32.196
32.2199
32.2434
32.2666
32.2894
32.3119
32.3339
32.3556
32.3769
32.3978
32.4183
32.4384
32.458
32.4773
32.4962
32.5146
32.5327
32.5503
32.5675
32.5842
32.6005
32.6164
32.6319
32.6469
32.6615
32.6756
32.6893
32.7025
32.7153
32.7276
32.7395
32.7509
32.7618
32.7723
32.7823
32.7918
32.8009
32.8095
32.8177
32.8254
32.8325
32.8393
32.8455
32.8513
32.8566
32.8614
32.8657
32.8696
32.873
32.8759
32.8783
32.8802
32.8817
32.8826
32.8831
45.4319
45.4249
45.4106
45.3899
45.3629
45.3301
45.2919
45.2486
45.2004
45.1476
45.0903
45.0287
44.9628
44.8928
44.8186
44.7406
44.6585
44.5727
44.483
44.3896
44.2926
44.1921
44.088
43.9806
43.8699
43.756
43.639
43.5189
43.3959
43.27
43.1413
43.01
42.8761
42.7398
42.601
42.46
42.3168
42.1715
42.0242
41.8751
41.7242
41.5716
41.4174
41.2617
41.1046
40.9463
40.7867
40.6261
40.4644
40.3019
40.1385
39.9745
39.8098
39.6445
39.4788
39.3128
39.1465
38.98
38.8135
38.6469
38.4804
38.3141
38.148
37.9823
37.8169
37.652
37.4877
37.324
37.161
36.9987
36.8373
36.6768
36.5172
36.3587
36.2013
36.045
35.8899
35.736
35.5835
35.4324
35.2827
35.1344
34.9876
34.8425
34.6989
34.5569
34.4167
34.2782
34.1414
34.0064
33.8733
33.742
33.6126
33.4851
33.3596
33.236
33.1144
32.9949
32.8773
32.7618
32.6484
32.537
32.4278
32.3206
32.2155
32.1126
32.0118
31.9131
31.8166
31.7222
31.63
31.5399
31.4519
31.3661
31.2824
31.2008
31.1214
31.0441
30.969
30.8959
30.8249
30.7561
30.6893
30.6245
30.5619
30.5012
30.4426
30.386
30.3315
30.2788
30.2282
30.1795
30.1327
30.0878
30.0448
30.0037
29.9645
29.927
29.8914
29.8575
29.8254
29.795
29.7664
29.7394
29.7141
29.6905
29.6685
29.648
29.6292
29.6118
29.596
29.5817
29.5689
29.5575
29.5475
29.5389
29.5317
29.5258
29.5213
29.518
29.516
29.5152
29.5157
29.5173
29.5201
29.5241
29.5291
29.5353
29.5425
29.5507
29.5599
29.5702
29.5814
29.5935
29.6066
29.6205
29.6353
29.651
29.6674
29.6847
29.7027
29.7215
29.741
29.7612
29.7821
29.8037
29.8259
29.8487
29.8721
29.8961
29.9207
29.9457
29.9713
29.9974
30.0239
30.0509
30.0784
30.1062
30.1345
30.1631
30.1921
30.2214
30.2511
30.281
30.3113
30.3418
30.3726
30.4036
30.4348
30.4662
30.4978
30.5296
30.5616
30.5937
30.6259
30.6583
30.6907
30.7233
30.7559
30.7885
30.8213
30.854
30.8868
30.9195
30.9523
30.985
31.0178
31.0504
31.0831
31.1156
31.1481
31.1805
31.2128
31.245
31.2771
31.309
31.3408
31.3725
31.404
31.4353
31.4665
31.4975
31.5282
31.5588
31.5892
31.6194
31.6493
31.679
31.7084
31.7376
31.7666
31.7952
31.8236
31.8518
31.8796
31.9072
31.9344
31.9613
31.988
32.0143
32.0403
32.0659
32.0913
32.1163
32.1409
32.1652
32.1891
32.2127
32.2359
32.2587
32.2812
32.3032
32.3249
32.3462
32.3671
32.3876
32.4078
32.4275
32.4468
32.4656
32.4841
32.5022
32.5198
32.537
32.5537
32.5701
32.586
32.6014
32.6165
32.631
32.6452
32.6589
32.6721
32.6849
32.6972
32.7091
32.7205
32.7314
32.7419
32.7519
32.7615
32.7706
32.7792
32.7874
32.795
32.8022
32.809
32.8152
32.821
32.8263
32.8311
32.8354
32.8393
32.8427
32.8456
32.848
32.8499
32.8514
32.8523
32.8528
45.3805
45.3735
45.3593
45.3386
45.3116
45.2788
45.2404
45.197
45.1485
45.0954
45.0378
44.9758
44.9096
44.8392
44.7647
44.6862
44.6039
44.5176
44.4276
44.3339
44.2366
44.1358
44.0315
43.9238
43.8128
43.6986
43.5813
43.461
43.3377
43.2116
43.0828
42.9512
42.8171
42.6805
42.5416
42.4004
42.257
42.1115
41.964
41.8147
41.6636
41.5108
41.3565
41.2006
41.0434
40.8849
40.7252
40.5645
40.4027
40.24
40.0765
39.9124
39.7475
39.5822
39.4164
39.2503
39.0839
38.9174
38.7507
38.5841
38.4176
38.2512
38.085
37.9192
37.7538
37.5889
37.4245
37.2608
37.0978
36.9355
36.7741
36.6135
36.454
36.2955
36.138
35.9817
35.8267
35.6729
35.5204
35.3693
35.2196
35.0714
34.9247
34.7795
34.636
34.4942
34.354
34.2155
34.0788
33.9439
33.8109
33.6797
33.5504
33.423
33.2976
33.1741
33.0526
32.9331
32.8157
32.7003
32.587
32.4758
32.3667
32.2596
32.1547
32.0519
31.9512
31.8527
31.7563
31.6621
31.57
31.48
31.3922
31.3065
31.223
31.1416
31.0624
30.9852
30.9102
30.8373
30.7665
30.6978
30.6312
30.5666
30.5041
30.4437
30.3852
30.3288
30.2744
30.222
30.1715
30.1229
30.0763
30.0316
29.9888
29.9479
29.9088
29.8715
29.836
29.8023
29.7704
29.7402
29.7117
29.685
29.6598
29.6364
29.6145
29.5942
29.5755
29.5584
29.5427
29.5286
29.5159
29.5047
29.4949
29.4864
29.4794
29.4737
29.4692
29.4661
29.4643
29.4637
29.4643
29.4661
29.469
29.4731
29.4783
29.4846
29.4919
29.5003
29.5097
29.52
29.5314
29.5436
29.5568
29.5709
29.5858
29.6016
29.6182
29.6356
29.6537
29.6726
29.6923
29.7126
29.7336
29.7553
29.7776
29.8005
29.824
29.8481
29.8728
29.8979
29.9236
29.9498
29.9764
30.0035
30.0311
30.059
30.0874
30.1161
30.1451
30.1745
30.2043
30.2343
30.2646
30.2952
30.3261
30.3572
30.3885
30.42
30.4517
30.4835
30.5156
30.5477
30.58
30.6124
30.6449
30.6775
30.7102
30.7429
30.7757
30.8085
30.8413
30.8741
30.907
30.9397
30.9725
31.0052
31.0379
31.0705
31.103
31.1355
31.1678
31.2001
31.2322
31.2642
31.296
31.3277
31.3592
31.3906
31.4218
31.4528
31.4836
31.5143
31.5447
31.5748
31.6048
31.6345
31.664
31.6932
31.7222
31.7509
31.7793
31.8075
31.8353
31.8629
31.8902
31.9171
31.9438
31.9701
31.9961
32.0218
32.0471
32.0721
32.0968
32.1211
32.145
32.1686
32.1918
32.2147
32.2372
32.2592
32.2809
32.3023
32.3232
32.3437
32.3638
32.3835
32.4028
32.4217
32.4402
32.4583
32.4759
32.4931
32.5099
32.5262
32.5421
32.5576
32.5726
32.5872
32.6014
32.615
32.6283
32.6411
32.6534
32.6653
32.6767
32.6877
32.6981
32.7082
32.7177
32.7268
32.7354
32.7436
32.7513
32.7585
32.7652
32.7715
32.7772
32.7825
32.7874
32.7917
32.7956
32.7989
32.8018
32.8042
32.8062
32.8076
32.8086
32.8091
45.3405
45.3336
45.3196
45.2992
45.2724
45.2398
45.2015
45.1581
45.1097
45.0565
44.9987
44.9366
44.8701
44.7994
44.7246
44.6459
44.5632
44.4766
44.3863
44.2922
44.1946
44.0934
43.9887
43.8807
43.7694
43.6549
43.5373
43.4166
43.293
43.1666
43.0374
42.9056
42.7712
42.6343
42.4951
42.3536
42.2099
42.0641
41.9164
41.7668
41.6154
41.4624
41.3078
41.1517
40.9943
40.8355
40.6756
40.5146
40.3526
40.1898
40.0261
39.8617
39.6967
39.5311
39.3652
39.1989
39.0323
38.8656
38.6988
38.532
38.3653
38.1988
38.0325
37.8666
37.7011
37.536
37.3715
37.2077
37.0446
36.8822
36.7207
36.5601
36.4004
36.2419
36.0844
35.928
35.7729
35.6191
35.4665
35.3154
35.1657
35.0175
34.8708
34.7256
34.5821
34.4402
34.3001
34.1616
34.025
33.8901
33.7571
33.6259
33.4966
33.3693
33.2439
33.1205
32.9991
32.8797
32.7624
32.6471
32.5338
32.4227
32.3137
32.2067
32.1019
31.9992
31.8986
31.8002
31.704
31.6098
31.5179
31.428
31.3403
31.2548
31.1714
31.0902
31.0111
30.9341
30.8592
30.7865
30.7158
30.6473
30.5808
30.5164
30.4541
30.3938
30.3355
30.2792
30.225
30.1727
30.1224
30.0741
30.0276
29.9831
29.9405
29.8997
29.8608
29.8237
29.7884
29.7549
29.7231
29.6931
29.6648
29.6382
29.6133
29.59
29.5683
29.5482
29.5297
29.5127
29.4972
29.4833
29.4708
29.4597
29.4501
29.4418
29.4349
29.4294
29.4252
29.4222
29.4205
29.4201
29.4209
29.4228
29.4259
29.4302
29.4355
29.442
29.4495
29.458
29.4676
29.4781
29.4896
29.502
29.5154
29.5296
29.5447
29.5606
29.5773
29.5949
29.6132
29.6322
29.652
29.6725
29.6936
29.7154
29.7379
29.7609
29.7846
29.8088
29.8336
29.8589
29.8847
29.911
29.9377
29.965
29.9926
30.0207
30.0491
30.078
30.1071
30.1367
30.1665
30.1966
30.2271
30.2578
30.2887
30.3199
30.3513
30.3829
30.4147
30.4467
30.4788
30.511
30.5434
30.5759
30.6085
30.6412
30.674
30.7068
30.7396
30.7725
30.8054
30.8383
30.8712
30.904
30.9369
30.9697
31.0024
31.0351
31.0677
31.1002
31.1326
31.1649
31.1971
31.2291
31.261
31.2928
31.3244
31.3558
31.3871
31.4181
31.449
31.4797
31.5101
31.5403
31.5704
31.6001
31.6296
31.6589
31.6879
31.7167
31.7451
31.7733
31.8012
31.8288
31.8561
31.8831
31.9098
31.9362
31.9622
31.988
32.0133
32.0384
32.0631
32.0874
32.1114
32.135
32.1582
32.1811
32.2036
32.2257
32.2474
32.2688
32.2897
32.3102
32.3304
32.3501
32.3695
32.3884
32.4069
32.4249
32.4426
32.4598
32.4766
32.493
32.5089
32.5244
32.5394
32.554
32.5682
32.5819
32.5951
32.6079
32.6203
32.6322
32.6436
32.6546
32.6651
32.6751
32.6847
32.6938
32.7024
32.7105
32.7182
32.7254
32.7322
32.7384
32.7442
32.7495
32.7544
32.7587
32.7626
32.7659
32.7688
32.7713
32.7732
32.7746
32.7756
32.7761
45.2913
45.2844
45.2705
45.2502
45.2234
45.1908
45.1525
45.1089
45.0603
45.0069
44.9488
44.8864
44.8195
44.7485
44.6733
44.5942
44.5111
44.4241
44.3334
44.239
44.141
44.0394
43.9344
43.826
43.7144
43.5995
43.4816
43.3606
43.2367
43.1099
42.9804
42.8483
42.7136
42.5764
42.4369
42.2951
42.1511
42.0051
41.8571
41.7072
41.5556
41.4023
41.2475
41.0911
40.9335
40.7745
40.6144
40.4531
40.2909
40.1278
39.964
39.7994
39.6342
39.4685
39.3023
39.1359
38.9691
38.8023
38.6353
38.4684
38.3016
38.1349
37.9685
37.8025
37.6368
37.4717
37.3071
37.1432
36.98
36.8175
36.656
36.4953
36.3356
36.177
36.0194
35.8631
35.7079
35.5541
35.4015
35.2504
35.1007
34.9524
34.8057
34.6606
34.5171
34.3753
34.2352
34.0968
33.9601
33.8253
33.6924
33.5613
33.4321
33.3048
33.1795
33.0562
32.9349
32.8156
32.6983
32.5831
32.47
32.359
32.2501
32.1433
32.0386
31.936
31.8356
31.7373
31.6412
31.5472
31.4554
31.3657
31.2782
31.1928
31.1096
31.0285
30.9496
30.8727
30.798
30.7255
30.655
30.5866
30.5204
30.4561
30.394
30.3339
30.2758
30.2197
30.1657
30.1136
30.0635
30.0153
29.9691
29.9248
29.8823
29.8418
29.803
29.7661
29.731
29.6977
29.6662
29.6364
29.6083
29.5819
29.5571
29.534
29.5125
29.4926
29.4743
29.4575
29.4423
29.4285
29.4162
29.4053
29.3959
29.3878
29.3811
29.3758
29.3718
29.369
29.3675
29.3672
29.3682
29.3703
29.3736
29.3781
29.3836
29.3902
29.3979
29.4066
29.4163