/*--------------------------------*- C++ -*----------------------------------*\
| =========                 |                                                 |
| \\      /  F ield         | OpenFOAM: The Open Source CFD Toolbox           |
|  \\    /   O peration     | Version:  2212                                  |
|   \\  /    A nd           | Website:  www.openfoam.com                      |
|    \\/     M anipulation  |                                                 |
\*---------------------------------------------------------------------------*/
FoamFile
{
    version     2.0;
    format      ascii;
    arch        "LSB;label=32;scalar=64";
    class       volScalarField;
    location    "620";
    object      p_rgh;
}
// * * * * * * * * * * * * * * * * * * * * * * * * * * * * * * * * * * * * * //

dimensions      [1 -1 -2 0 0 0 0];

internalField   nonuniform List<scalar> 
204800
(
45.8037
45.7983
45.7875
45.7714
45.7495
45.7221
45.689
45.6503
45.6062
45.557
45.5028
45.4439
45.3803
45.3124
45.2401
45.1637
45.0832
44.9987
44.9103
44.818
44.7221
44.6225
44.5193
44.4127
44.3027
44.1894
44.073
43.9534
43.8309
43.7055
43.5773
43.4464
43.3129
43.1768
43.0384
42.8976
42.7546
42.6095
42.4624
42.3133
42.1624
42.0099
41.8557
41.7
41.5429
41.3844
41.2248
41.064
40.9022
40.7394
40.5758
40.4115
40.2465
40.081
39.915
39.7486
39.5819
39.4151
39.2481
39.081
38.9141
38.7473
38.5806
38.4143
38.2484
38.0829
37.918
37.7536
37.5899
37.427
37.2649
37.1036
36.9433
36.784
36.6258
36.4687
36.3128
36.1582
36.0048
35.8528
35.7022
35.553
35.4053
35.2592
35.1147
34.9718
34.8306
34.6911
34.5533
34.4173
34.2832
34.1508
34.0204
33.8919
33.7653
33.6406
33.5179
33.3973
33.2786
33.162
33.0475
32.935
32.8246
32.7163
32.6101
32.5061
32.4041
32.3043
32.2066
32.1111
32.0177
31.9265
31.8373
31.7504
31.6655
31.5828
31.5023
31.4238
31.3475
31.2733
31.2012
31.1312
31.0632
30.9974
30.9336
30.8718
30.8121
30.7543
30.6986
30.6449
30.5931
30.5433
30.4955
30.4495
30.4054
30.3632
30.3229
30.2844
30.2477
30.2128
30.1796
30.1483
30.1186
30.0906
30.0643
30.0397
30.0166
29.9952
29.9754
29.9571
29.9404
29.9251
29.9113
29.899
29.8881
29.8786
29.8705
29.8638
29.8584
29.8542
29.8514
29.8498
29.8494
29.8502
29.8522
29.8553
29.8596
29.865
29.8714
29.8789
29.8874
29.8969
29.9073
29.9188
29.9311
29.9444
29.9585
29.9734
29.9893
30.0059
30.0233
30.0414
30.0603
30.0799
30.1002
30.1212
30.1428
30.165
30.1878
30.2113
30.2353
30.2598
30.2848
30.3104
30.3364
30.3629
30.3899
30.4172
30.445
30.4732
30.5017
30.5306
30.5598
30.5893
30.6191
30.6492
30.6795
30.7101
30.741
30.772
30.8033
30.8347
30.8663
30.898
30.9299
30.9619
30.994
31.0262
31.0585
31.0908
31.1232
31.1556
31.1881
31.2205
31.253
31.2855
31.3179
31.3503
31.3827
31.4149
31.4472
31.4793
31.5114
31.5433
31.5751
31.6068
31.6384
31.6699
31.7011
31.7323
31.7632
31.794
31.8246
31.8549
31.8851
31.9151
31.9448
31.9743
32.0036
32.0326
32.0614
32.0899
32.1181
32.1461
32.1738
32.2012
32.2283
32.2551
32.2816
32.3077
32.3336
32.3591
32.3843
32.4091
32.4337
32.4578
32.4816
32.5051
32.5282
32.5509
32.5732
32.5952
32.6168
32.638
32.6588
32.6792
32.6992
32.7188
32.7381
32.7568
32.7752
32.7932
32.8107
32.8279
32.8446
32.8608
32.8767
32.892
32.907
32.9215
32.9356
32.9492
32.9624
32.9751
32.9874
32.9992
33.0106
33.0215
33.0319
33.0419
33.0514
33.0605
33.0691
33.0772
33.0848
33.092
33.0987
33.1049
33.1107
33.1159
33.1207
33.1251
33.1289
33.1323
33.1352
33.1376
33.1395
33.1409
33.1419
33.1424
45.7417
45.7347
45.721
45.7013
45.6755
45.6445
45.6082
45.5671
45.5212
45.4707
45.4156
45.3561
45.2922
45.2241
45.1517
45.0753
44.9948
44.9103
44.822
44.7298
44.634
44.5345
44.4315
44.325
44.2152
44.1021
43.9858
43.8665
43.7442
43.619
43.491
43.3602
43.2269
43.0911
42.9529
42.8124
42.6696
42.5247
42.3778
42.2291
42.0784
41.9261
41.7722
41.6168
41.4599
41.3018
41.1424
40.9819
40.8203
40.6579
40.4946
40.3306
40.1659
40.0006
39.8349
39.6688
39.5024
39.3358
39.1692
39.0024
38.8358
38.6692
38.5029
38.3369
38.1713
38.0061
37.8414
37.6774
37.514
37.3514
37.1895
37.0286
36.8686
36.7096
36.5516
36.3948
36.2392
36.0848
35.9318
35.78
35.6297
35.4808
35.3334
35.1876
35.0433
34.9007
34.7597
34.6205
34.483
34.3473
34.2134
34.0813
33.9511
33.8228
33.6964
33.572
33.4496
33.3292
33.2108
33.0944
32.9801
32.8678
32.7576
32.6495
32.5436
32.4397
32.338
32.2384
32.1409
32.0455
31.9523
31.8612
31.7723
31.6855
31.6008
31.5183
31.4379
31.3596
31.2835
31.2094
31.1374
31.0676
30.9998
30.934
30.8704
30.8087
30.7491
30.6916
30.636
30.5824
30.5307
30.481
30.4332
30.3874
30.3434
30.3013
30.2611
30.2226
30.186
30.1512
30.1181
30.0868
30.0572
30.0293
30.0031
29.9785
29.9555
29.9342
29.9144
29.8962
29.8795
29.8643
29.8505
29.8383
29.8274
29.818
29.8099
29.8032
29.7978
29.7936
29.7908
29.7892
29.7889
29.7897
29.7917
29.7949
29.7991
29.8045
29.8109
29.8184
29.8269
29.8364
29.8469
29.8583
29.8706
29.8838
29.898
29.9129
29.9287
29.9453
29.9627
29.9808
29.9997
30.0192
30.0395
30.0605
30.082
30.1042
30.1271
30.1505
30.1744
30.1989
30.2239
30.2494
30.2754
30.3019
30.3288
30.3561
30.3839
30.412
30.4405
30.4693
30.4984
30.5279
30.5577
30.5877
30.618
30.6486
30.6794
30.7103
30.7415
30.7729
30.8044
30.8361
30.868
30.8999
30.932
30.9641
30.9963
31.0286
31.0609
31.0933
31.1257
31.1581
31.1906
31.223
31.2553
31.2877
31.32
31.3522
31.3844
31.4165
31.4485
31.4803
31.5121
31.5438
31.5753
31.6067
31.6379
31.669
31.6999
31.7306
31.7611
31.7914
31.8216
31.8515
31.8812
31.9106
31.9398
31.9688
31.9975
32.026
32.0542
32.0821
32.1097
32.1371
32.1641
32.1909
32.2173
32.2434
32.2692
32.2947
32.3199
32.3447
32.3692
32.3933
32.417
32.4405
32.4635
32.4862
32.5085
32.5304
32.552
32.5731
32.5939
32.6143
32.6343
32.6538
32.673
32.6918
32.7101
32.7281
32.7456
32.7627
32.7793
32.7956
32.8114
32.8267
32.8417
32.8561
32.8702
32.8838
32.8969
32.9097
32.9219
32.9337
32.945
32.9559
32.9664
32.9763
32.9858
32.9948
33.0034
33.0115
33.0191
33.0263
33.033
33.0392
33.0449
33.0502
33.055
33.0593
33.0631
33.0665
33.0694
33.0718
33.0737
33.0751
33.0761
33.0766
45.7254
45.7187
45.7051
45.6854
45.6598
45.6288
45.5926
45.5515
45.5056
45.455
45.3998
45.3402
45.2762
45.208
45.1356
45.059
44.9784
44.8939
44.8055
44.7133
44.6173
44.5178
44.4147
44.3082
44.1983
44.0851
43.9688
43.8494
43.7271
43.6018
43.4738
43.343
43.2097
43.0738
42.9355
42.795
42.6522
42.5073
42.3604
42.2115
42.0609
41.9086
41.7546
41.5991
41.4423
41.2841
41.1247
40.9642
40.8026
40.6402
40.4768
40.3128
40.1481
39.9828
39.8171
39.651
39.4846
39.3181
39.1514
38.9846
38.818
38.6514
38.4851
38.3191
38.1535
37.9883
37.8237
37.6596
37.4962
37.3336
37.1718
37.0109
36.8509
36.6919
36.534
36.3772
36.2216
36.0672
35.9142
35.7624
35.6121
35.4633
35.3159
35.1701
35.0259
34.8833
34.7423
34.6031
34.4656
34.3299
34.1961
34.064
33.9339
33.8056
33.6793
33.5549
33.4325
33.3121
33.1937
33.0774
32.9631
32.8509
32.7408
32.6327
32.5268
32.423
32.3213
32.2217
32.1243
32.0289
31.9358
31.8447
31.7559
31.6691
31.5845
31.502
31.4216
31.3434
31.2673
31.1933
31.1213
31.0515
30.9838
30.9181
30.8545
30.7929
30.7333
30.6758
30.6202
30.5667
30.5151
30.4654
30.4177
30.3719
30.3279
30.2859
30.2457
30.2073
30.1707
30.136
30.1029
30.0717
30.0421
30.0142
29.9881
29.9635
29.9406
29.9193
29.8995
29.8813
29.8647
29.8495
29.8358
29.8236
29.8128
29.8034
29.7953
29.7886
29.7833
29.7792
29.7764
29.7749
29.7745
29.7754
29.7774
29.7806
29.7849
29.7903
29.7968
29.8043
29.8128
29.8224
29.8329
29.8443
29.8567
29.8699
29.8841
29.8991
29.9149
29.9315
29.9489
29.9671
29.9859
30.0056
30.0258
30.0468
30.0684
30.0906
30.1135
30.1369
30.1609
30.1854
30.2104
30.236
30.262
30.2885
30.3154
30.3428
30.3705
30.3986
30.4271
30.456
30.4852
30.5146
30.5444
30.5745
30.6048
30.6354
30.6662
30.6972
30.7284
30.7598
30.7913
30.823
30.8549
30.8868
30.9189
30.951
30.9833
31.0156
31.0479
31.0803
31.1127
31.1452
31.1776
31.21
31.2424
31.2747
31.307
31.3393
31.3715
31.4036
31.4356
31.4675
31.4992
31.5309
31.5624
31.5938
31.6251
31.6561
31.687
31.7177
31.7483
31.7786
31.8087
31.8387
31.8684
31.8978
31.927
31.956
31.9847
32.0132
32.0414
32.0693
32.097
32.1243
32.1514
32.1781
32.2046
32.2307
32.2565
32.282
32.3071
32.3319
32.3564
32.3805
32.4043
32.4277
32.4508
32.4735
32.4958
32.5177
32.5392
32.5604
32.5812
32.6016
32.6215
32.6411
32.6603
32.6791
32.6974
32.7153
32.7329
32.7499
32.7666
32.7828
32.7987
32.814
32.829
32.8434
32.8575
32.8711
32.8842
32.897
32.9092
32.921
32.9323
32.9432
32.9537
32.9636
32.9731
32.9822
32.9907
32.9988
33.0065
33.0136
33.0203
33.0265
33.0323
33.0375
33.0423
33.0466
33.0505
33.0538
33.0567
33.0591
33.061
33.0625
33.0634
33.0639
45.6653
45.658
45.6433
45.6222
45.595
45.5624
45.5246
45.4821
45.435
45.3834
45.3275
45.2673
45.2028
45.1342
45.0615
44.9848
44.904
44.8194
44.7309
44.6386
44.5427
44.4431
44.34
44.2335
44.1236
44.0105
43.8943
43.7749
43.6526
43.5274
43.3995
43.2688
43.1356
42.9998
42.8616
42.7212
42.5785
42.4337
42.2869
42.1382
41.9877
41.8355
41.6817
41.5264
41.3697
41.2116
41.0524
40.892
40.7306
40.5683
40.4052
40.2413
40.0768
39.9117
39.7461
39.5802
39.414
39.2476
39.0811
38.9146
38.7481
38.5817
38.4156
38.2498
38.0844
37.9194
37.7549
37.5911
37.4279
37.2655
37.1039
36.9431
36.7833
36.6246
36.4668
36.3103
36.1549
36.0007
35.8478
35.6963
35.5462
35.3976
35.2504
35.1048
34.9608
34.8184
34.6776
34.5386
34.4013
34.2658
34.1321
34.0003
33.8703
33.7423
33.6161
33.492
33.3697
33.2495
33.1313
33.0152
32.9011
32.7891
32.6791
32.5712
32.4655
32.3618
32.2603
32.1609
32.0636
31.9685
31.8755
31.7846
31.6959
31.6093
31.5248
31.4425
31.3623
31.2842
31.2082
31.1344
31.0626
30.9929
30.9253
30.8598
30.7963
30.7348
30.6754
30.618
30.5625
30.5091
30.4576
30.4081
30.3605
30.3148
30.271
30.229
30.1889
30.1506
30.1142
30.0795
30.0466
30.0154
29.9859
29.9582
29.9321
29.9076
29.8848
29.8635
29.8439
29.8258
29.8092
29.7941
29.7805
29.7683
29.7575
29.7482
29.7402
29.7336
29.7283
29.7243
29.7215
29.72
29.7197
29.7207
29.7227
29.726
29.7303
29.7357
29.7423
29.7498
29.7584
29.7679
29.7785
29.7899
29.8023
29.8156
29.8298
29.8448
29.8606
29.8773
29.8947
29.9128
29.9317
29.9514
29.9717
29.9926
30.0143
30.0365
30.0593
30.0828
30.1067
30.1313
30.1563
30.1818
30.2079
30.2343
30.2613
30.2886
30.3163
30.3445
30.373
30.4018
30.431
30.4604
30.4902
30.5203
30.5506
30.5811
30.6119
30.6429
30.6741
30.7054
30.737
30.7687
30.8005
30.8324
30.8645
30.8966
30.9288
30.9611
30.9934
31.0258
31.0582
31.0906
31.123
31.1554
31.1877
31.22
31.2523
31.2845
31.3167
31.3488
31.3807
31.4126
31.4444
31.476
31.5075
31.5389
31.5701
31.6011
31.632
31.6627
31.6932
31.7235
31.7536
31.7835
31.8131
31.8426
31.8718
31.9007
31.9294
31.9578
31.986
32.0139
32.0415
32.0688
32.0959
32.1226
32.149
32.1751
32.2009
32.2263
32.2515
32.2762
32.3007
32.3248
32.3485
32.3719
32.3949
32.4176
32.4399
32.4618
32.4833
32.5045
32.5252
32.5456
32.5655
32.5851
32.6042
32.623
32.6413
32.6592
32.6767
32.6938
32.7104
32.7266
32.7424
32.7578
32.7727
32.7872
32.8012
32.8148
32.8279
32.8406
32.8529
32.8646
32.876
32.8868
32.8973
32.9072
32.9167
32.9257
32.9343
32.9424
32.95
32.9571
32.9638
32.97
32.9758
32.981
32.9858
32.9901
32.9939
32.9973
33.0002
33.0026
33.0045
33.0059
33.0069
33.0074
45.6385
45.6314
45.617
45.5962
45.5692
45.5369
45.4993
45.4569
45.4097
45.3581
45.3021
45.2417
45.1771
45.1083
45.0354
44.9585
44.8776
44.7928
44.7041
44.6117
44.5156
44.4159
44.3127
44.206
44.096
43.9828
43.8664
43.747
43.6246
43.4993
43.3712
43.2404
43.1071
42.9712
42.833
42.6924
42.5497
42.4048
42.2579
42.1092
41.9586
41.8063
41.6524
41.497
41.3403
41.1822
41.0229
40.8624
40.701
40.5386
40.3755
40.2115
40.047
39.8818
39.7162
39.5503
39.384
39.2176
39.0511
38.8845
38.718
38.5516
38.3855
38.2197
38.0542
37.8892
37.7248
37.5609
37.3977
37.2353
37.0737
36.913
36.7532
36.5944
36.4367
36.2801
36.1247
35.9706
35.8178
35.6663
35.5162
35.3676
35.2204
35.0748
34.9309
34.7885
34.6478
34.5088
34.3716
34.2361
34.1025
33.9707
33.8408
33.7127
33.5867
33.4625
33.3404
33.2202
33.1021
32.986
32.872
32.76
32.6501
32.5423
32.4366
32.333
32.2316
32.1322
32.035
31.9399
31.847
31.7562
31.6676
31.581
31.4967
31.4144
31.3343
31.2563
31.1804
31.1066
31.0349
30.9653
30.8977
30.8323
30.7689
30.7075
30.6482
30.5908
30.5355
30.4821
30.4307
30.3813
30.3337
30.2881
30.2444
30.2025
30.1625
30.1243
30.0879
30.0533
30.0205
29.9894
29.96
29.9323
29.9063
29.8819
29.8592
29.838
29.8184
29.8004
29.7839
29.7688
29.7553
29.7432
29.7325
29.7233
29.7154
29.7088
29.7036
29.6996
29.697
29.6955
29.6953
29.6963
29.6984
29.7017
29.7062
29.7117
29.7182
29.7258
29.7345
29.7441
29.7547
29.7662
29.7787
29.792
29.8062
29.8213
29.8372
29.8539
29.8714
29.8896
29.9086
29.9282
29.9486
29.9696
29.9913
30.0136
30.0365
30.0599
30.084
30.1085
30.1336
30.1592
30.1853
30.2118
30.2387
30.2661
30.2939
30.3221
30.3506
30.3795
30.4087
30.4382
30.468
30.4981
30.5284
30.559
30.5898
30.6209
30.6521
30.6835
30.7151
30.7468
30.7786
30.8106
30.8427
30.8748
30.9071
30.9394
30.9717
31.0041
31.0365
31.069
31.1014
31.1338
31.1662
31.1985
31.2308
31.2631
31.2952
31.3273
31.3593
31.3912
31.423
31.4546
31.4862
31.5175
31.5488
31.5798
31.6107
31.6414
31.6719
31.7023
31.7324
31.7623
31.792
31.8214
31.8506
31.8796
31.9083
31.9367
31.9649
31.9928
32.0204
32.0478
32.0748
32.1015
32.1279
32.1541
32.1799
32.2053
32.2305
32.2552
32.2797
32.3038
32.3276
32.351
32.374
32.3966
32.4189
32.4408
32.4624
32.4835
32.5043
32.5246
32.5446
32.5642
32.5833
32.6021
32.6204
32.6383
32.6558
32.6729
32.6896
32.7058
32.7216
32.7369
32.7518
32.7663
32.7803
32.7939
32.8071
32.8198
32.832
32.8438
32.8551
32.866
32.8764
32.8864
32.8959
32.9049
32.9135
32.9215
32.9292
32.9363
32.943
32.9492
32.9549
32.9602
32.965
32.9693
32.9731
32.9765
32.9794
32.9818
32.9837
32.9851
32.9861
32.9866
45.5813
45.5741
45.5593
45.5381
45.5106
45.4775
45.4392
45.396
45.3482
45.296
45.2393
45.1785
45.1134
45.0442
44.971
44.8938
44.8126
44.7275
44.6387
44.5461
44.4498
44.35
44.2467
44.1399
44.0299
43.9165
43.8001
43.6806
43.5581
43.4328
43.3047
43.1739
43.0405
42.9047
42.7664
42.6259
42.4831
42.3382
42.1914
42.0426
41.8921
41.7398
41.586
41.4306
41.2739
41.1158
40.9566
40.7962
40.6348
40.4725
40.3094
40.1455
39.981
39.816
39.6504
39.4846
39.3184
39.1521
38.9856
38.8191
38.6527
38.4865
38.3204
38.1547
37.9894
37.8245
37.6601
37.4964
37.3333
37.171
37.0095
36.8489
36.6892
36.5306
36.373
36.2166
36.0613
35.9073
35.7546
35.6033
35.4533
35.3048
35.1578
35.0124
34.8685
34.7263
34.5858
34.4469
34.3098
34.1745
34.0411
33.9094
33.7796
33.6518
33.5258
33.4019
33.2799
33.1599
33.0419
32.926
32.8121
32.7003
32.5905
32.4829
32.3773
32.2739
32.1726
32.0734
31.9764
31.8815
31.7887
31.698
31.6095
31.5232
31.4389
31.3568
31.2768
31.199
31.1232
31.0496
30.978
30.9086
30.8412
30.7759
30.7126
30.6514
30.5922
30.535
30.4798
30.4265
30.3753
30.326
30.2786
30.2331
30.1895
30.1477
30.1078
30.0698
30.0335
29.999
29.9663
29.9353
29.9061
29.8785
29.8526
29.8283
29.8057
29.7846
29.7651
29.7472
29.7308
29.7159
29.7024
29.6904
29.6799
29.6707
29.6629
29.6564
29.6513
29.6474
29.6448
29.6435
29.6434
29.6444
29.6466
29.65
29.6545
29.6601
29.6667
29.6744
29.6831
29.6928
29.7034
29.715
29.7276
29.741
29.7552
29.7704
29.7863
29.8031
29.8206
29.8389
29.8579
29.8776
29.898
29.9191
29.9408
29.9631
29.986
30.0096
30.0336
30.0582
30.0834
30.109
30.1351
30.1616
30.1886
30.216
30.2438
30.272
30.3006
30.3295
30.3587
30.3882
30.4181
30.4482
30.4785
30.5091
30.54
30.571
30.6022
30.6337
30.6652
30.697
30.7288
30.7608
30.7929
30.825
30.8573
30.8896
30.922
30.9543
30.9868
31.0192
31.0516
31.084
31.1164
31.1488
31.1811
31.2133
31.2455
31.2776
31.3096
31.3414
31.3732
31.4049
31.4364
31.4678
31.499
31.53
31.5609
31.5916
31.6221
31.6524
31.6826
31.7124
31.7421
31.7716
31.8008
31.8297
31.8584
31.8868
31.915
31.9429
31.9705
31.9978
32.0249
32.0516
32.078
32.1041
32.1299
32.1553
32.1805
32.2052
32.2297
32.2538
32.2775
32.3009
32.3239
32.3466
32.3689
32.3908
32.4123
32.4334
32.4542
32.4745
32.4945
32.514
32.5332
32.5519
32.5702
32.5881
32.6056
32.6227
32.6393
32.6555
32.6713
32.6867
32.7016
32.716
32.7301
32.7437
32.7568
32.7695
32.7817
32.7935
32.8048
32.8157
32.8261
32.836
32.8455
32.8545
32.8631
32.8712
32.8788
32.8859
32.8926
32.8988
32.9046
32.9098
32.9146
32.9189
32.9227
32.9261
32.929
32.9314
32.9333
32.9347
32.9357
32.9362
45.5479
45.5408
45.5263
45.5054
45.4782
45.4455
45.4073
45.3643
45.3165
45.2642
45.2075
45.1464
45.0812
45.0118
44.9383
44.8609
44.7795
44.6942
44.6051
44.5123
44.4158
44.3157
44.2122
44.1052
43.995
43.8815
43.7649
43.6452
43.5225
43.397
43.2688
43.1378
43.0043
42.8683
42.7298
42.5891
42.4462
42.3012
42.1542
42.0053
41.8547
41.7023
41.5483
41.3928
41.236
41.0778
40.9184
40.758
40.5965
40.4341
40.2709
40.1069
39.9423
39.7772
39.6116
39.4456
39.2794
39.113
38.9465
38.7799
38.6135
38.4472
38.2811
38.1153
37.9499
37.785
37.6206
37.4568
37.2937
37.1314
36.9699
36.8092
36.6496
36.4909
36.3333
36.1769
36.0216
35.8676
35.7149
35.5636
35.4137
35.2652
35.1182
34.9728
34.829
34.6868
34.5463
34.4075
34.2704
34.1352
34.0017
33.8701
33.7404
33.6126
33.4867
33.3628
33.2409
33.121
33.0031
32.8872
32.7734
32.6616
32.552
32.4444
32.3389
32.2356
32.1344
32.0353
31.9383
31.8435
31.7508
31.6603
31.5719
31.4856
31.4015
31.3195
31.2396
31.1618
31.0862
31.0126
30.9412
30.8719
30.8046
30.7394
30.6762
30.6151
30.556
30.4989
30.4438
30.3907
30.3396
30.2903
30.2431
30.1977
30.1542
30.1126
30.0728
30.0349
29.9987
29.9643
29.9317
29.9009
29.8717
29.8443
29.8185
29.7943
29.7718
29.7508
29.7315
29.7137
29.6974
29.6826
29.6692
29.6573
29.6469
29.6378
29.6301
29.6237
29.6187
29.6149
29.6125
29.6112
29.6112
29.6124
29.6147
29.6182
29.6228
29.6284
29.6352
29.6429
29.6517
29.6615
29.6723
29.684
29.6966
29.7101
29.7244
29.7397
29.7557
29.7725
29.7901
29.8085
29.8276
29.8474
29.8679
29.889
29.9108
29.9332
29.9562
29.9798
30.004
30.0286
30.0538
30.0795
30.1057
30.1323
30.1594
30.1868
30.2147
30.243
30.2716
30.3005
30.3298
30.3594
30.3893
30.4195
30.4499
30.4806
30.5114
30.5425
30.5738
30.6053
30.6369
30.6687
30.7006
30.7326
30.7647
30.797
30.8293
30.8616
30.894
30.9265
30.9589
30.9914
31.0239
31.0563
31.0887
31.1211
31.1535
31.1857
31.2179
31.2501
31.2821
31.314
31.3458
31.3775
31.409
31.4404
31.4717
31.5028
31.5337
31.5644
31.5949
31.6253
31.6554
31.6853
31.715
31.7445
31.7737
31.8027
31.8314
31.8599
31.8881
31.916
31.9436
31.9709
31.998
32.0247
32.0512
32.0773
32.1031
32.1285
32.1537
32.1785
32.2029
32.227
32.2508
32.2742
32.2972
32.3199
32.3422
32.3641
32.3856
32.4068
32.4275
32.4479
32.4679
32.4874
32.5066
32.5253
32.5437
32.5616
32.5791
32.5962
32.6128
32.629
32.6448
32.6602
32.6751
32.6896
32.7036
32.7172
32.7303
32.743
32.7553
32.767
32.7784
32.7892
32.7996
32.8096
32.8191
32.8281
32.8367
32.8448
32.8524
32.8595
32.8662
32.8724
32.8782
32.8834
32.8882
32.8925
32.8963
32.8997
32.9026
32.905
32.9069
32.9083
32.9093
32.9098
45.4938
45.4866
45.4722
45.4512
45.4238
45.3908
45.3524
45.309
45.2608
45.2081
45.1509
45.0895
45.0238
44.954
44.8802
44.8024
44.7207
44.6351
44.5457
44.4527
44.3559
44.2557
44.1519
44.0448
43.9343
43.8207
43.7039
43.584
43.4612
43.3356
43.2072
43.0761
42.9424
42.8063
42.6678
42.527
42.384
42.2389
42.0918
41.9428
41.792
41.6396
41.4855
41.33
41.1731
41.0149
40.8555
40.6949
40.5334
40.371
40.2077
40.0437
39.8791
39.714
39.5484
39.3824
39.2162
39.0497
38.8832
38.7167
38.5502
38.3839
38.2179
38.0521
37.8868
37.7219
37.5575
37.3938
37.2307
37.0684
36.907
36.7464
36.5868
36.4282
36.2707
36.1143
35.9591
35.8052
35.6526
35.5013
35.3515
35.2031
35.0562
34.9109
34.7672
34.6251
34.4847
34.346
34.209
34.0739
33.9406
33.8091
33.6795
33.5518
33.4261
33.3023
33.1805
33.0607
32.9429
32.8271
32.7135
32.6019
32.4923
32.3849
32.2796
32.1764
32.0753
31.9764
31.8796
31.7849
31.6924
31.602
31.5137
31.4276
31.3436
31.2617
31.182
31.1044
31.0289
30.9555
30.8843
30.8151
30.7479
30.6829
30.6199
30.5589
30.5
30.443
30.3881
30.3351
30.2841
30.2351
30.188
30.1427
30.0994
30.0579
30.0183
29.9805
29.9445
29.9103
29.8778
29.8471
29.8181
29.7908
29.7651
29.7411
29.7187
29.6979
29.6787
29.661
29.6448
29.6301
29.6169
29.6052
29.5948
29.5859
29.5783
29.5721
29.5672
29.5635
29.5612
29.5601
29.5601
29.5614
29.5639
29.5675
29.5721
29.5779
29.5848
29.5927
29.6016
29.6114
29.6223
29.6341
29.6468
29.6604
29.6748
29.6901
29.7063
29.7232
29.7409
29.7593
29.7785
29.7984
29.819
29.8402
29.862
29.8845
29.9076
29.9313
29.9555
29.9802
30.0055
30.0312
30.0575
30.0842
30.1113
30.1388
30.1668
30.1951
30.2237
30.2528
30.2821
30.3117
30.3417
30.3719
30.4024
30.4331
30.464
30.4951
30.5265
30.558
30.5896
30.6215
30.6534
30.6855
30.7176
30.7499
30.7822
30.8146
30.847
30.8795
30.912
30.9445
30.977
31.0095
31.0419
31.0743
31.1067
31.139
31.1712
31.2033
31.2354
31.2673
31.2992
31.3309
31.3624
31.3938
31.4251
31.4562
31.4871
31.5179
31.5484
31.5788
31.6089
31.6389
31.6686
31.698
31.7273
31.7562
31.785
31.8134
31.8416
31.8696
31.8972
31.9245
31.9516
31.9783
32.0048
32.0309
32.0567
32.0822
32.1073
32.1321
32.1566
32.1807
32.2045
32.2279
32.2509
32.2736
32.2959
32.3178
32.3393
32.3604
32.3812
32.4016
32.4215
32.4411
32.4603
32.479
32.4973
32.5153
32.5327
32.5498
32.5665
32.5827
32.5985
32.6138
32.6287
32.6432
32.6573
32.6708
32.684
32.6967
32.7089
32.7207
32.732
32.7429
32.7533
32.7633
32.7727
32.7818
32.7903
32.7984
32.806
32.8132
32.8199
32.8261
32.8318
32.8371
32.8418
32.8461
32.85
32.8533
32.8562
32.8586
32.8605
32.862
32.8629
32.8634
45.4563
45.4493
45.435
45.4143
45.3873
45.3545
45.3163
45.273
45.2248
45.172
45.1147
45.0531
44.9872
44.9172
44.8431
44.7651
44.683
44.5972
44.5075
44.4142
44.3172
44.2166
44.1126
44.0052
43.8944
43.7805
43.6635
43.5434
43.4203
43.2945
43.1658
43.0345
42.9006
42.7642
42.6255
42.4845
42.3412
42.1959
42.0487
41.8995
41.7485
41.5959
41.4417
41.286
41.1289
40.9705
40.8109
40.6502
40.4885
40.3259
40.1625
39.9984
39.8336
39.6683
39.5026
39.3365
39.1702
39.0036
38.837
38.6704
38.5038
38.3374
38.1713
38.0054
37.84
37.675
37.5106
37.3468
37.1837
37.0213
36.8598
36.6992
36.5395
36.3809
36.2234
36.067
35.9118
35.7578
35.6052
35.4539
35.3041
35.1557
35.0088
34.8635
34.7198
34.5778
34.4374
34.2987
34.1618
34.0267
33.8934
33.762
33.6324
33.5048
33.3791
33.2554
33.1336
33.0139
32.8962
32.7805
32.6669
32.5554
32.446
32.3387
32.2334
32.1303
32.0294
31.9305
31.8338
31.7392
31.6468
31.5565
31.4684
31.3824
31.2985
31.2168
31.1372
31.0597
30.9843
30.9111
30.8399
30.7709
30.7039
30.639
30.5761
30.5153
30.4565
30.3997
30.3449
30.2921
30.2412
30.1923
30.1453
30.1002
30.057
30.0157
29.9762
29.9386
29.9027
29.8687
29.8363
29.8058
29.7769
29.7497
29.7242
29.7004
29.6781
29.6575
29.6384
29.6208
29.6048
29.5903
29.5772
29.5656
29.5554
29.5466
29.5392
29.5331
29.5283
29.5248
29.5226
29.5216
29.5218
29.5233
29.5258
29.5295
29.5344
29.5403
29.5473
29.5553
29.5643
29.5743
29.5853
29.5972
29.61
29.6237
29.6383
29.6538
29.67
29.687
29.7048
29.7234
29.7427
29.7627
29.7834
29.8047
29.8267
29.8493
29.8724
29.8962
29.9205
29.9454
29.9707
29.9966
30.0229
30.0497
30.0769
30.1045
30.1325
30.1609
30.1897
30.2188
30.2482
30.278
30.308
30.3383
30.3688
30.3996
30.4306
30.4618
30.4932
30.5248
30.5566
30.5884
30.6205
30.6526
30.6848
30.7171
30.7495
30.782
30.8145
30.847
30.8795
30.9121
30.9447
30.9772
31.0097
31.0422
31.0746
31.1069
31.1392
31.1714
31.2035
31.2355
31.2674
31.2991
31.3307
31.3622
31.3935
31.4246
31.4556
31.4864
31.517
31.5473
31.5775
31.6075
31.6372
31.6667
31.696
31.725
31.7538
31.7823
31.8105
31.8385
31.8661
31.8935
31.9206
31.9474
31.9738
32
32.0258
32.0513
32.0765
32.1013
32.1258
32.1499
32.1737
32.1971
32.2202
32.2429
32.2652
32.2871
32.3087
32.3298
32.3506
32.371
32.391
32.4105
32.4297
32.4485
32.4668
32.4847
32.5023
32.5193
32.536
32.5522
32.568
32.5834
32.5983
32.6128
32.6269
32.6404
32.6536
32.6663
32.6785
32.6903
32.7017
32.7125
32.723
32.7329
32.7424
32.7514
32.76
32.7681
32.7757
32.7829
32.7896
32.7958
32.8015
32.8068
32.8116
32.8159
32.8197
32.8231
32.8259
32.8283
32.8303
32.8317
32.8327
32.8331
45.4048
45.3978
45.3837
45.363
45.336
45.3032
45.2648
45.2213
45.1729
45.1198
45.0622
45.0002
44.934
44.8636
44.7892
44.7107
44.6283
44.5421
44.4521
44.3585
44.2611
44.1603
44.056
43.9483
43.8373
43.7231
43.6058
43.4855
43.3622
43.2361
43.1072
42.9757
42.8416
42.705
42.566
42.4248
42.2814
42.1359
41.9884
41.8391
41.6879
41.5351
41.3807
41.2249
41.0676
40.9091
40.7494
40.5886
40.4267
40.264
40.1005
39.9363
39.7714
39.606
39.4402
39.274
39.1075
38.9409
38.7742
38.6075
38.4409
38.2745
38.1082
37.9424
37.7769
37.6119
37.4474
37.2836
37.1205
36.9581
36.7966
36.6359
36.4763
36.3177
36.1601
36.0037
35.8486
35.6946
35.542
35.3908
35.241
35.0927
34.9459
34.8006
34.6569
34.5149
34.3746
34.236
34.0992
33.9642
33.831
33.6996
33.5702
33.4426
33.3171
33.1934
33.0718
32.9522
32.8346
32.7191
32.6056
32.4942
32.3849
32.2777
32.1726
32.0696
31.9688
31.8701
31.7735
31.6791
31.5868
31.4967
31.4087
31.3228
31.2391
31.1576
31.0781
31.0008
30.9256
30.8525
30.7815
30.7126
30.6458
30.581
30.5183
30.4577
30.399
30.3424
30.2878
30.2352
30.1845
30.1357
30.0889
30.044
30.001
29.9598
29.9205
29.8831
29.8474
29.8135
29.7813
29.7509
29.7222
29.6952
29.6699
29.6462
29.6241
29.6036
29.5847
29.5674
29.5515
29.5371
29.5242
29.5128
29.5028
29.4941
29.4868
29.4809
29.4763
29.4729
29.4709
29.47
29.4704
29.472
29.4747
29.4786
29.4835
29.4896
29.4967
29.5049
29.514
29.5242
29.5353
29.5473
29.5603
29.5741
29.5888
29.6044
29.6207
29.6379
29.6558
29.6745
29.6939
29.714
29.7348
29.7563
29.7784
29.8011
29.8243
29.8482
29.8726
29.8976
29.923
29.949
29.9754
30.0023
30.0296
30.0573
30.0854
30.1139
30.1428
30.1719
30.2015
30.2313
30.2614
30.2917
30.3224
30.3532
30.3843
30.4156
30.4471
30.4787
30.5105
30.5425
30.5745
30.6067
30.639
30.6714
30.7039
30.7364
30.7689
30.8015
30.8341
30.8667
30.8993
30.9319
30.9645
30.997
31.0294
31.0618
31.0942
31.1264
31.1585
31.1906
31.2225
31.2543
31.2859
31.3174
31.3487
31.3799
31.4109
31.4417
31.4724
31.5028
31.533
31.563
31.5928
31.6223
31.6516
31.6806
31.7094
31.7379
31.7662
31.7942
31.8219
31.8493
31.8764
31.9032
31.9296
31.9558
31.9817
32.0072
32.0324
32.0572
32.0817
32.1058
32.1296
32.1531
32.1762
32.1989
32.2212
32.2431
32.2647
32.2859
32.3067
32.327
32.347
32.3666
32.3858
32.4046
32.4229
32.4409
32.4584
32.4755
32.4922
32.5084
32.5242
32.5396
32.5545
32.569
32.583
32.5966
32.6098
32.6225
32.6348
32.6466
32.6579
32.6688
32.6792
32.6892
32.6987
32.7077
32.7163
32.7244
32.732
32.7391
32.7458
32.752
32.7578
32.763
32.7678
32.7721
32.776
32.7793
32.7822
32.7846
32.7865
32.788
32.7889
32.7894
45.3649
45.358
45.344
45.3236
45.2967
45.2641
45.2259
45.1825
45.1341
45.0809
45.0231
44.961
44.8945
44.8238
44.7491
44.6703
44.5876
44.5011
44.4107
44.3167
44.2191
44.1179
44.0132
43.9052
43.7939
43.6793
43.5617
43.4411
43.3175
43.191
43.0619
42.93
42.7956
42.6587
42.5195
42.378
42.2343
42.0885
41.9408
41.7911
41.6398
41.4867
41.3321
41.1759
41.0185
40.8597
40.6997
40.5387
40.3767
40.2137
40.05
39.8856
39.7205
39.5549
39.3889
39.2225
39.0559
38.8891
38.7223
38.5554
38.3887
38.2221
38.0557
37.8897
37.7241
37.559
37.3944
37.2305
37.0672
36.9048
36.7432
36.5825
36.4227
36.264
36.1064
35.95
35.7948
35.6408
35.4882
35.3369
35.1871
35.0387
34.8919
34.7467
34.603
34.461
34.3207
34.1821
34.0453
33.9103
33.7772
33.6458
33.5164
33.389
33.2634
33.1399
33.0183
32.8987
32.7812
32.6658
32.5524
32.4411
32.3319
32.2248
32.1198
32.0169
31.9162
31.8176
31.7211
31.6268
31.5347
31.4447
31.3568
31.2711
31.1875
31.1061
31.0268
30.9496
30.8746
30.8016
30.7308
30.6621
30.5954
30.5308
30.4683
30.4078
30.3493
30.2929
30.2384
30.1859
30.1354
30.0868
30.0402
29.9955
29.9526
29.9117
29.8725
29.8352
29.7997
29.766
29.734
29.7038
29.6753
29.6485
29.6233
29.5998
29.5779
29.5576
29.5389
29.5217
29.506
29.4918
29.4791
29.4678
29.458
29.4495
29.4424
29.4366
29.4322
29.429
29.4271
29.4265
29.427
29.4287
29.4316
29.4357
29.4408
29.447
29.4543
29.4626
29.4719
29.4822
29.4935
29.5057
29.5188
29.5328
29.5477
29.5634
29.5799
29.5972
29.6153
29.6341
29.6537
29.6739
29.6948
29.7164
29.7386
29.7615
29.7849
29.8089
29.8334
29.8585
29.8841
29.9102
29.9367
29.9637
29.9911
30.019
30.0472
30.0758
30.1048
30.1341
30.1637
30.1936
30.2238
30.2543
30.285
30.316
30.3472
30.3785
30.4101
30.4419
30.4738
30.5058
30.538
30.5702
30.6026
30.6351
30.6676
30.7002
30.7328
30.7655
30.7982
30.8309
30.8636
30.8962
30.9288
30.9614
30.994
31.0264
31.0588
31.0911
31.1233
31.1554
31.1874
31.2192
31.2509
31.2825
31.3139
31.3451
31.3762
31.4071
31.4377
31.4682
31.4985
31.5285
31.5583
31.5879
31.6173
31.6463
31.6752
31.7037
31.732
31.76
31.7878
31.8152
31.8424
31.8692
31.8957
31.9219
31.9478
31.9733
31.9986
32.0234
32.048
32.0721
32.096
32.1194
32.1425
32.1653
32.1876
32.2096
32.2312
32.2524
32.2732
32.2936
32.3136
32.3332
32.3524
32.3712
32.3896
32.4076
32.4251
32.4422
32.4589
32.4752
32.491
32.5064
32.5213
32.5358
32.5499
32.5635
32.5767
32.5894
32.6016
32.6135
32.6248
32.6357
32.6461
32.6561
32.6656
32.6746
32.6832
32.6913
32.699
32.7061
32.7128
32.719
32.7248
32.73
32.7348
32.7392
32.743
32.7464
32.7492
32.7516
32.7536
32.755
32.756
32.7564
45.3156
45.3087
45.2948
45.2745
45.2477
45.2151
45.1768
45.1333
45.0847
45.0313
44.9732
44.9107
44.8439
44.7729
44.6977
44.6186
44.5355
44.4486
44.3579
44.2635
44.1654
44.0639
43.9589
43.8505
43.7388
43.624
43.506
43.385
43.2611
43.1343
43.0048
42.8727
42.738
42.6008
42.4613
42.3195
42.1755
42.0294
41.8814
41.7315
41.5799
41.4266
41.2717
41.1153
40.9576
40.7986
40.6384
40.4772
40.3149
40.1518
39.9879
39.8232
39.658
39.4922
39.326
39.1595
38.9927
38.8258
38.6588
38.4918
38.3249
38.1582
37.9917
37.8256
37.6598
37.4946
37.33
37.1659
37.0026
36.8401
36.6784
36.5177
36.3579
36.1991
36.0415
35.885
35.7298
35.5758
35.4231
35.2719
35.1221
34.9737
34.8269
34.6816
34.538
34.3961
34.2558
34.1173
33.9805
33.8455
33.7124
33.5812
33.4519
33.3245
33.199
33.0755
32.9541
32.8346
32.7172
32.6018
32.4886
32.3774
32.2683
32.1613
32.0564
31.9537
31.8531
31.7547
31.6584
31.5642
31.4722
31.3823
31.2946
31.2091
31.1257
31.0444
30.9653
30.8883
30.8134
30.7406
30.67
30.6014
30.5349
30.4705
30.4082
30.3479
30.2896
30.2333
30.1791
30.1268
30.0765
30.0281
29.9817
29.9371
29.8945
29.8537
29.8148
29.7777
29.7424
29.7089
29.6771
29.6471
29.6188
29.5921
29.5672
29.5439
29.5222
29.5021
29.4835
29.4665
29.451
29.4371
29.4245
29.4135
29.4038
29.3955
29.3886
29.383
29.3788
29.3758
29.3741
29.3736
29.3743
29.3763
29.3793
29.3835
29.3889