/*--------------------------------*- C++ -*----------------------------------*\
| =========                 |                                                 |
| \\      /  F ield         | OpenFOAM: The Open Source CFD Toolbox           |
|  \\    /   O peration     | Version:  2212                                  |
|   \\  /    A nd           | Website:  www.openfoam.com                      |
|    \\/     M anipulation  |                                                 |
\*---------------------------------------------------------------------------*/
FoamFile
{
    version     2.0;
    format      ascii;
    arch        "LSB;label=32;scalar=64";
    class       surfaceScalarField;
    location    "620";
    object      phi;
}
// * * * * * * * * * * * * * * * * * * * * * * * * * * * * * * * * * * * * * //

dimensions      [1 0 -1 0 0 0 0];

oriented        oriented;

internalField   nonuniform List<scalar> 
408640
(
-1435.12
1432.83
-2830.5
1394.57
-4151.64
1320.36
-5378.99
1226.59
-6509.33
1129.6
-7552.23
1042.17
-8524.55
971.6
-9445.16
919.901
-10331.3
885.381
-11196.4
864.451
-12050.2
853.118
-12898.8
847.858
-13745.5
845.983
-14591.8
845.65
-15438.2
845.715
-16284.4
845.539
-17129.9
844.809
-17974.1
843.411
-18816.1
841.337
-19655.4
838.627
-20491.4
835.343
-21323.7
831.548
-22151.7
827.299
-22975
822.647
-23793.4
817.634
-24606.3
812.296
-25413.7
806.662
-26215.1
800.757
-27010.4
794.602
-27799.4
788.216
-28581.7
781.612
-29357.2
774.806
-30125.7
767.808
-30887
760.629
-31640.9
753.279
-32387.4
745.766
-33126.2
738.098
-33857.2
730.283
-34580.2
722.326
-35295.1
714.235
-36001.8
706.016
-36700.2
697.673
-37390.1
689.213
-38071.4
680.641
-38744.1
671.962
-39407.9
663.181
-40062.9
654.302
-40708.9
645.33
-41345.9
636.27
-41973.7
627.126
-42592.3
617.902
-43201.5
608.604
-43801.4
599.234
-44391.9
589.797
-44972.9
580.297
-45544.3
570.738
-46106.1
561.124
-46658.2
551.458
-47200.6
541.746
-47733.3
531.99
-48256.1
522.194
-48769.1
512.362
-49272.3
502.498
-49765.6
492.605
-50248.9
482.686
-50722.3
472.746
-51185.7
462.787
-51639.2
452.814
-52082.7
442.829
-52516.1
432.836
-52939.6
422.838
-53353.1
412.838
-53756.5
402.839
-54150
392.845
-54533.5
382.859
-54907
372.883
-55270.5
362.921
-55624.1
352.976
-55967.8
343.05
-56301.6
333.146
-56625.4
323.267
-56939.4
313.416
-57243.6
303.595
-57538
293.808
-57822.7
284.055
-58097.6
274.341
-58362.9
264.667
-58618.5
255.035
-58864.5
245.449
-59101
235.91
-59328
226.421
-59545.5
216.983
-59753.7
207.598
-59952.5
198.27
-60142.1
188.999
-60322.4
179.788
-60493.6
170.638
-60655.7
161.551
-60808.7
152.529
-60952.8
143.574
-61088
134.687
-61214.4
125.87
-61332.1
117.123
-61441
108.45
-61541.4
99.8498
-61633.2
91.3253
-61716.6
82.8774
-61791.6
74.5071
-61858.3
66.2157
-61916.8
58.0041
-61967.1
49.8736
-62009.4
41.8249
-62043.7
33.859
-62070.2
25.9769
-62088.8
18.1792
-62099.7
10.4667
-62103
2.84024
-62098.7
-4.69968
-62087
-12.1524
-62067.9
-19.5174
-62041.6
-26.7942
-62008
-33.9823
-61967.3
-41.0813
-61919.7
-48.0908
-61865
-55.0107
-61803.6
-61.8405
-61735.4
-68.5801
-61660.6
-75.2293
-61579.2
-81.7879
-61491.3
-88.2559
-61397
-94.6333
-61296.5
-100.92
-61189.7
-107.116
-61076.8
-113.221
-60957.9
-119.236
-60833.1
-125.161
-60702.4
-130.995
-60566
-136.74
-60424
-142.395
-60276.3
-147.96
-60123.2
-153.436
-59964.7
-158.824
-59800.8
-164.123
-59631.8
-169.334
-59457.6
-174.457
-59278.4
-179.493
-59094.2
-184.443
-58905.2
-189.306
-58711.4
-194.084
-58512.8
-198.777
-58309.7
-203.385
-58102
-207.909
-57889.9
-212.35
-57673.4
-216.709
-57452.7
-220.985
-57227.7
-225.18
-56998.6
-229.294
-56765.5
-233.329
-56528.4
-237.284
-56287.5
-241.161
-56042.7
-244.96
-55794.2
-248.682
-55542
-252.328
-55286.3
-255.898
-55027.1
-259.394
-54764.4
-262.816
-54498.4
-266.165
-54229.1
-269.441
-53956.6
-272.647
-53680.9
-275.782
-53402.2
-278.847
-53120.5
-281.844
-52835.8
-284.773
-52548.3
-287.634
-52257.9
-290.43
-51964.9
-293.16
-51669.1
-295.826
-51370.8
-298.428
-51069.9
-300.968
-50766.5
-303.446
-50460.7
-305.863
-50152.5
-308.22
-49842.1
-310.517
-49529.4
-312.757
-49214.4
-314.939
-48897.4
-317.065
-48578.3
-319.136
-48257.2
-321.152
-47934.1
-323.114
-47609
-325.023
-47282.2
-326.88
-46953.5
-328.686
-46623
-330.441
-46290.8
-332.148
-45957
-333.805
-45621.5
-335.415
-45284.5
-336.979
-44946
-338.496
-44606
-339.968
-44264.5
-341.396
-43921.6
-342.781
-43577.5
-344.122
-43231.9
-345.422
-42885.2
-346.682
-42537.2
-347.9
-42188
-349.08
-41837.7
-350.221
-41486.2
-351.324
-41133.7
-352.39
-40780.2
-353.42
-40425.6
-354.415
-40070.1
-355.375
-39713.7
-356.301
-39356.4
-357.194
-38998.1
-358.054
-38639.1
-358.883
-38279.3
-359.68
-37918.6
-360.448
-37557.3
-361.186
-37195.2
-361.895
-36832.4
-362.575
-36469
-363.229
-36104.9
-363.855
-35740.3
-364.456
-35375
-365.03
-35009.2
-365.58
-34642.9
-366.106
-34276
-366.608
-33908.7
-367.088
-33540.9
-367.545
-33172.7
-367.98
-32804
-368.394
-32435
-368.787
-32065.6
-369.161
-31695.8
-369.515
-31325.6
-369.851
-30955.2
-370.168
-30584.4
-370.467
-30213.4
-370.749
-29842.1
-371.015
-29470.5
-371.265
-29098.7
-371.498
-28726.6
-371.717
-28354.4
-371.921
-27982
-372.111
-27609.3
-372.288
-27236.5
-372.451
-26863.6
-372.602
-26490.5
-372.74
-26117.3
-372.867
-25743.9
-372.982
-25370.5
-373.086
-24996.9
-373.18
-24623.3
-373.263
-24249.6
-373.337
-23875.8
-373.402
-23501.9
-373.458
-23128
-373.506
-22754.1
-373.545
-22380.1
-373.577
-22006.1
-373.601
-21632.1
-373.618
-21258
-373.629
-20884
-373.633
-20509.9
-373.631
-20135.9
-373.624
-19761.8
-373.611
-19387.8
-373.593
-19013.8
-373.571
-18639.8
-373.544
-18265.8
-373.513
-17891.9
-373.478
-17518
-373.44
-17144.1
-373.398
-16770.3
-373.354
-16396.5
-373.306
-16022.8
-373.257
-15649.1
-373.204
-15275.5
-373.15
-14901.9
-373.094
-14528.4
-373.037
-14154.9
-372.978
-13781.5
-372.918
-13408.1
-372.857
-13034.8
-372.796
-12661.6
-372.734
-12288.4
-372.671
-11915.3
-372.609
-11542.2
-372.547
-11169.2
-372.484
-10796.3
-372.423
-10423.4
-372.361
-10050.6
-372.301
-9677.82
-372.241
-9305.11
-372.183
-8932.45
-372.125
-8559.85
-372.069
-8187.31
-372.015
-7814.81
-371.962
-7442.36
-371.91
-7069.96
-371.861
-6697.6
-371.814
-6325.29
-371.769
-5953.02
-371.726
-5580.79
-371.686
-5208.6
-371.648
-4836.44
-371.613
-4464.31
-371.581
-4092.2
-371.553
-3720.12
-371.527
-3348.07
-371.505
-2976.03
-371.486
-2604
-371.471
-2231.99
-371.459
-1859.99
-371.45
-1487.99
-371.444
-1115.99
-371.441
-743.993
-371.44
-371.997
-371.44
-371.44
-1410.61
2842.63
-2785.15
2768.31
-4091.67
2626.1
-5311.6
2445.76
-6441.14
2258.4
-7488.13
2088.43
-8467.44
1950.19
-9396.19
1847.94
-10290.3
1778.78
-11162.6
1736.05
-12022.3
1712.18
-12875.6
1700.42
-13725.9
1695.55
-14574.8
1693.93
-15423.1
1693.3
-16270.6
1692.36
-17117
1690.45
-17961.6
1687.32
-18803.9
1682.92
-19643.2
1677.32
-20479.2
1670.61
-21311.3
1662.91
-22139
1654.32
-22962
1644.95
-23779.9
1634.88
-24592.5
1624.16
-25399.4
1612.86
-26200.3
1601.02
-26995.1
1588.69
-27783.5
1575.9
-28565.2
1562.68
-29340.2
1549.05
-30108.1
1535.05
-30868.8
1520.68
-31622.2
1505.97
-32368.1
1490.94
-33106.3
1475.6
-33836.6
1459.97
-34559.1
1444.05
-35273.4
1427.87
-35979.5
1411.42
-36677.2
1394.74
-37366.5
1377.82
-38047.2
1360.67
-38719.3
1343.32
-39382.5
1325.75
-40036.9
1308
-40682.3
1290.05
-41318.7
1271.94
-41945.9
1253.65
-42563.8
1235.2
-43172.5
1216.61
-43771.8
1197.87
-44361.7
1179
-44942.1
1160
-45512.9
1140.89
-46074.1
1121.66
-46625.7
1102.34
-47167.5
1082.92
-47699.6
1063.41
-48221.9
1043.82
-48734.3
1024.16
-49236.9
1004.44
-49729.6
984.654
-50212.4
964.822
-50685.2
944.946
-51148.1
925.034
-51601.1
905.092
-52044
885.127
-52476.9
865.146
-52899.9
845.155
-53312.8
825.161
-53715.8
805.17
-54108.8
785.188
-54491.8
765.221
-54864.8
745.276
-55227.8
725.358
-55580.9
705.474
-55924.1
685.628
-56257.4
665.827
-56580.8
646.076
-56894.4
626.38
-57198.2
606.746
-57492.1
587.177
-57776.3
567.679
-58050.8
548.257
-58315.7
528.916
-58570.9
509.661
-58816.5
490.495
-59052.6
471.425
-59279.2
452.453
-59496.3
433.585
-59704.1
414.824
-59902.6
396.175
-60091.8
377.64
-60271.8
359.226
-60442.6
340.933
-60604.4
322.768
-60757.1
304.732
-60900.9
286.829
-61035.8
269.063
-61161.9
251.436
-61279.2
233.951
-61387.9
216.612
-61487.9
199.42
-61579.5
182.379
-61662.6
165.491
-61737.3
148.759
-61803.8
132.184
-61862
115.769
-61912.2
99.5157
-61954.2
83.4265
-61988.3
67.5028
-62014.6
51.7465
-62033
36.1592
-62043.7
20.7424
-62046.8
5.49741
-62042.4
-9.5744
-62030.5
-24.4719
-62011.3
-39.1939
-61984.7
-53.7394
-61951
-68.1076
-61910.2
-82.2977
-61862.4
-96.3089
-61807.7
-110.141
-61746.1
-123.792
-61677.8
-137.264
-61602.9
-150.554
-61521.4
-163.664
-61433.4
-176.592
-61339.1
-189.339
-61238.5
-201.905
-61131.7
-214.289
-61018.7
-226.493
-60899.8
-238.515
-60774.9
-250.357
-60644.2
-262.018
-60507.8
-273.5
-60365.7
-284.802
-60218.1
-295.926
-60064.9
-306.871
-59906.4
-317.639
-59742.6
-328.229
-59573.6
-338.644
-59399.5
-348.884
-59220.3
-358.95
-59036.2
-368.842
-58847.2
-378.562
-58653.4
-388.111
-58454.9
-397.49
-58251.9
-406.7
-58044.3
-415.742
-57832.2
-424.618
-57615.9
-433.328
-57395.2
-441.874
-57170.3
-450.258
-56941.4
-458.48
-56708.3
-466.543
-56471.4
-474.447
-56230.5
-482.195
-55985.9
-489.787
-55737.5
-497.225
-55485.5
-504.511
-55229.9
-511.646
-54970.9
-518.632
-54708.4
-525.47
-54442.5
-532.163
-54173.4
-538.711
-53901.1
-545.117
-53625.6
-551.381
-53347
-557.507
-53065.5
-563.495
-52781
-569.348
-52493.7
-575.066
-52203.6
-580.652
-51910.7
-586.108
-51615.2
-591.434
-51317.1
-596.634
-51016.4
-601.709
-50713.3
-606.66
-50407.7
-611.489
-50099.8
-616.199
-49789.5
-620.791
-49477.1
-625.266
-49162.4
-629.626
-48845.6
-633.874
-48526.8
-638.011
-48205.9
-642.038
-47883.1
-645.958
-47558.3
-649.773
-47231.7
-653.483
-46903.3
-657.091
-46573.1
-660.599
-46241.3
-664.008
-45907.7
-667.32
-45572.6
-670.537
-45235.8
-673.66
-44897.6
-676.691
-44557.9
-679.632
-44216.7
-682.485
-43874.2
-685.251
-43530.3
-687.931
-43185.1
-690.528
-42838.7
-693.044
-42491
-695.479
-42142.1
-697.835
-41792.1
-700.114
-41441
-702.318
-41088.9
-704.448
-40735.7
-706.505
-40381.4
-708.492
-40026.3
-710.409
-39670.2
-712.258
-39313.2
-714.042
-38955.3
-715.76
-38596.6
-717.415
-38237.1
-719.008
-37876.9
-720.541
-37515.9
-722.014
-37154.1
-723.43
-36791.7
-724.79
-36428.7
-726.094
-36065
-727.345
-35700.7
-728.544
-35335.8
-729.692
-34970.4
-730.79
-34604.4
-731.84
-34237.9
-732.843
-33871
-733.8
-33503.6
-734.712
-33135.7
-735.581
-32767.5
-736.407
-32398.8
-737.193
-32029.7
-737.938
-31660.3
-738.645
-31290.6
-739.315
-30920.5
-739.948
-30550.2
-740.545
-30179.5
-741.108
-29808.6
-741.638
-29437.4
-742.136
-29066
-742.603
-28694.3
-743.039
-28322.5
-743.446
-27950.5
-743.825
-27578.2
-744.177
-27205.8
-744.502
-26833.3
-744.802
-26460.6
-745.078
-26087.8
-745.33
-25714.8
-745.56
-25341.8
-745.767
-24968.7
-745.954
-24595.4
-746.12
-24222.1
-746.268
-23848.7
-746.396
-23475.3
-746.508
-23101.8
-746.602
-22728.3
-746.68
-22354.7
-746.742
-21981.1
-746.79
-21607.5
-746.824
-21233.9
-746.844
-20860.2
-746.852
-20486.6
-746.848
-20112.9
-746.833
-19739.3
-746.807
-19365.7
-746.771
-18992.1
-746.725
-18618.5
-746.671
-18245
-746.609
-17871.4
-746.539
-17498
-746.462
-17124.5
-746.378
-16751.1
-746.288
-16377.8
-746.193
-16004.5
-746.093
-15631.2
-745.988
-15258
-745.879
-14884.8
-745.767
-14511.7
-745.652
-14138.7
-745.534
-13765.7
-745.414
-13392.8
-745.292
-13019.9
-745.169
-12647.1
-745.044
-12274.3
-744.919
-11901.6
-744.794
-11529
-744.669
-11156.4
-744.544
-10783.9
-744.421
-10411.4
-744.298
-10039
-744.177
-9666.7
-744.057
-9294.41
-743.94
-8922.18
-743.825
-8550.01
-743.713
-8177.89
-743.603
-7805.82
-743.497
-7433.8
-743.394
-7061.82
-743.295
-6689.9
-743.201
-6318.01
-743.11
-5946.17
-743.025
-5574.37
-742.944
-5202.6
-742.869
-4830.87
-742.799
-4459.17
-742.735
-4087.49
-742.677
-3715.84
-742.626
-3344.21
-742.582
-2972.6
-742.544
-2601.01
-742.513
-2229.42
-742.489
-1857.85
-742.471
-1486.28
-742.46
-1114.71
-742.453
-743.14
-742.452
-371.572
-742.453
-742.456
-1382.23
4224.06
-2731.67
4116.96
-4019.99
3913.66
-5230.2
3655.21
-6357.94
3385.4
-7409.3
3139.06
-8396.85
2937.03
-9335.61
2785.98
-10239.9
2682.33
-11121.5
2616.95
-11989.2
2579.2
-12848.9
2559.46
-13704.2
2550.18
-14557.1
2546.07
-15408.2
2543.77
-16257.9
2541.29
-17105.7
2537.61
-17951.4
2532.29
-18794.3
2525.22
-19634.2
2516.45
-20470.4
2506.11
-21302.5
2494.35
-22130.2
2481.31
-22953.1
2467.13
-23770.8
2451.91
-24583.1
2435.75
-25389.6
2418.73
-26190.2
2400.92
-26984.6
2382.38
-27772.6
2363.15
-28553.9
2343.29
-29328.3
2322.83
-30095.8
2301.8
-30856
2280.23
-31608.9
2258.15
-32354.2
2235.59
-33091.9
2212.57
-33821.7
2189.11
-34543.6
2165.22
-35257.3
2140.94
-35962.9
2116.27
-36660.1
2091.24
-37348.8
2065.86
-38028.9
2040.14
-38700.4
2014.1
-39363.1
1987.75
-40016.9
1961.12
-40661.7
1934.2
-41297.5
1907.02
-41924.1
1879.6
-42541.5
1851.93
-43149.6
1824.04
-43748.4
1795.93
-44337.7
1767.63
-44917.5
1739.14
-45487.7
1710.47
-46048.3
1681.63
-46599.3
1652.65
-47140.6
1623.52
-47672.1
1594.26
-48193.8
1564.88
-48705.7
1535.4
-49207.8
1505.82
-49699.9
1476.15
-50182.1
1446.41
-50654.4
1416.6
-51116.8
1386.74
-51569.2
1356.83
-52011.6
1326.89
-52444
1296.93
-52866.4
1266.95
-53278.9
1236.96
-53681.3
1206.98
-54073.8
1177.02
-54456.2
1147.07
-54828.7
1117.17
-55191.3
1087.3
-55543.9
1057.48
-55886.6
1027.72
-56219.4
998.025
-56542.4
968.407
-56855.5
938.872
-57158.7
909.429
-57452.2
880.085
-57736
850.848
-58010.1
821.725
-58274.4
792.723
-58529.2
763.849
-58774.4
735.111
-59010.1
706.515
-59236.2
678.068
-59453
649.775
-59660.4
621.644
-59858.4
593.681
-60047.2
565.89
-60226.8
538.278
-60397.3
510.851
-60558.7
483.613
-60711.1
456.57
-60854.5
429.727
-60989
403.089
-61114.8
376.659
-61231.8
350.443
-61340.1
324.445
-61439.9
298.669
-61531.1
273.119
-61613.9
247.799
-61688.4
222.711
-61754.5
197.861
-61812.5
173.25
-61862.3
148.882
-61904.1
124.759
-61938
100.885
-61964
77.2625
-61982.1
53.8932
-61992.6
30.7796
-61995.5
7.92382
-61990.8
-14.6722
-61978.7
-37.0067
-61959.3
-59.078
-61932.6
-80.8847
-61898.7
-102.425
-61857.7
-123.699
-61809.7
-144.704
-61754.8
-165.44
-61693.1
-185.906
-61624.6
-206.102
-61549.5
-226.026
-61467.9
-245.679
-61379.8
-265.06
-61285.3
-284.169
-61184.6
-303.006
-61077.7
-321.571
-60964.6
-339.865
-60845.6
-357.887
-60720.7
-375.638
-60589.9
-393.12
-60453.4
-410.331
-60311.3
-427.273
-60163.5
-443.947
-60010.4
-460.354
-59851.8
-476.495
-59688
-492.371
-59518.9
-507.982
-59344.8
-523.331
-59165.6
-538.419
-58981.4
-553.247
-58792.4
-567.817
-58598.7
-582.13
-58400.2
-596.188
-58197.2
-609.993
-57989.6
-623.546
-57777.6
-636.849
-57561.3
-649.905
-57340.7
-662.714
-57115.9
-675.28
-56887
-687.604
-56654
-699.689
-56417.1
-711.536
-56176.4
-723.148
-55931.8
-734.527
-55683.5
-745.675
-55431.6
-756.594
-55176.1
-767.288
-54917.2
-777.758
-54654.8
-788.007
-54389.1
-798.037
-54120.1
-807.851
-53847.9
-817.451
-53572.5
-826.84
-53294.2
-836.02
-53012.8
-844.994
-52728.5
-853.765
-52441.3
-862.334
-52151.3
-870.706
-51858.7
-878.882
-51563.3
-886.864
-51265.4
-894.656
-50964.9
-902.261
-50661.9
-909.68
-50356.6
-916.918
-50048.8
-923.975
-49738.8
-930.855
-49426.6
-937.561
-49112.1
-944.095
-48795.6
-950.46
-48477
-956.659
-48156.3
-962.694
-47833.7
-968.567
-47509.2
-974.283
-47182.8
-979.842
-46854.7
-985.248
-46524.8
-990.504
-46193.1
-995.612
-45859.8
-1000.57
-45525
-1005.39
-45188.5
-1010.07
-44850.5
-1014.61
-44511.1
-1019.02
-44170.2
-1023.29
-43828
-1027.44
-43484.4
-1031.45
-43139.5
-1035.34
-42793.3
-1039.11
-42445.9
-1042.76
-42097.4
-1046.29
-41747.7
-1049.7
-41396.9
-1053
-41045
-1056.2
-40692.1
-1059.28
-40338.2
-1062.25
-39983.4
-1065.12
-39627.6
-1067.89
-39270.9
-1070.57
-38913.4
-1073.14
-38555
-1075.62
-38195.9
-1078
-37835.9
-1080.3
-37475.3
-1082.51
-37113.9
-1084.63
-36751.8
-1086.66
-36389.1
-1088.62
-36025.8
-1090.49
-35661.8
-1092.28
-35297.3
-1094
-34932.2
-1095.65
-34566.6
-1097.22
-34200.5
-1098.72
-33833.9
-1100.15
-33466.9
-1101.52
-33099.4
-1102.82
-32731.5
-1104.06
-32363.2
-1105.23
-31994.5
-1106.35
-31625.5
-1107.4
-31256.1
-1108.41
-30886.4
-1109.35
-30516.4
-1110.25
-30146.1
-1111.09
-29775.6
-1111.88
-29404.8
-1112.63
-29033.7
-1113.32
-28662.5
-1113.98
-28291
-1114.59
-27919.4
-1115.15
-27547.5
-1115.68
-27175.5
-1116.16
-26803.4
-1116.61
-26431.1
-1117.02
-26058.6
-1117.4
-25686.1
-1117.74
-25313.4
-1118.05
-24940.7
-1118.33
-24567.9
-1118.58
-24195
-1118.8
-23822
-1118.99
-23448.9
-1119.16
-23075.8
-1119.3
-22702.7
-1119.41
-22329.5
-1119.5
-21956.4
-1119.57
-21583.1
-1119.62
-21209.9
-1119.65
-20836.7
-1119.66
-20463.4
-1119.66
-20090.2
-1119.63
-19717
-1119.59
-19343.8
-1119.54
-18970.6
-1119.47
-18597.4
-1119.39
-18224.3
-1119.29
-17851.2
-1119.19
-17478.1
-1119.07
-17105.1
-1118.94
-16732.1
-1118.81
-16359.2
-1118.66
-15986.3
-1118.51
-15613.4
-1118.36
-15240.6
-1118.19
-14867.9
-1118.02
-14495.2
-1117.85
-14122.6
-1117.67
-13750
-1117.49
-13377.5
-1117.31
-13005
-1117.12
-12632.6
-1116.94
-12260.3
-1116.75
-11888
-1116.56
-11515.8
-1116.37
-11143.7
-1116.18
-10771.6
-1116
-10399.5
-1115.81
-10027.6
-1115.63
-9655.65
-1115.45
-9283.79
-1115.27
-8911.98
-1115.1
-8540.23
-1114.93
-8168.54
-1114.77
-7796.89
-1114.61
-7425.29
-1114.45
-7053.74
-1114.31
-6682.24
-1114.16
-6310.78
-1114.03
-5939.36
-1113.9
-5567.98
-1113.78
-5196.64
-1113.66
-4825.34
-1113.56
-4454.06
-1113.46
-4082.81
-1113.38
-3711.58
-1113.3
-3340.38
-1113.23
-2969.2
-1113.18
-2598.03
-1113.13
-2226.87
-1113.09
-1855.72
-1113.07
-1484.57
-1113.05
-1113.43
-1113.04
-742.288
-1113.04
-371.145
-1113.04
-1113.05
-1345.34
5568.62
-2662.31
5433.16
-3926.99
5177.57
-5124.38
4851.86
-6249.61
4509.89
-7306.57
4195.29
-8304.96
3934.71
-9257.06
3737.37
-10175
3599.61
-11069.4
3510.57
-11948.1
3457.24
-12816.9
3427.58
-13679.5
3412.06
-14538
3403.87
-15393.5
3398.55
-16246.4
3393.48
-17096.7
3387.21
-17944.1
3379.08
-18788.5
3368.86
-19629.3
3356.56
-20466.2
3342.32
-21298.8
3326.28
-22126.8
3308.62
-22949.9
3289.48
-23767.6
3269.01
-24579.9
3247.32
-25386.4
3224.51
-26186.8
3200.67
-26981
3175.87
-27768.7
3150.16
-28549.7
3123.62
-29323.9
3096.29
-30091
3068.21
-30850.9
3039.41
-31603.3
3009.95
-32348.3
2979.84
-33085.5
2949.12
-33814.9
2917.82
-34536.3
2885.96
-35249.7
2853.56
-35954.7
2820.66
-36651.4
2787.27
-37339.7
2753.41
-38019.3
2719.11
-38690.3
2684.38
-39352.5
2649.25
-40005.8
2613.73
-40650.1
2577.84
-41285.4
2541.6
-41911.5
2505.02
-42528.3
2468.13
-43135.9
2430.94
-43734.1
2393.47
-44322.9
2355.72
-44902.2
2317.73
-45471.9
2279.51
-46032
2241.06
-46582.4
2202.42
-47123.1
2163.58
-47654.1
2124.57
-48175.3
2085.4
-48686.6
2046.09
-49188.1
2006.66
-49679.7
1967.1
-50161.4
1927.45
-50633.2
1887.71
-51095
1847.9
-51546.8
1808.03
-51988.7
1768.11
-52420.6
1728.16
-52842.5
1688.2
-53254.4
1648.23
-53656.3
1608.26
-54048.2
1568.31
-54430.1
1528.4
-54802.1
1488.52
-55164.1
1448.71
-55516.2
1408.96
-55858.4
1369.29
-56190.7
1329.7
-56513.1
1290.22
-56825.7
1250.85
-57128.5
1211.6
-57421.5
1172.49
-57704.7
1133.51
-57978.3
1094.69
-58242.2
1056.03
-58496.4
1017.55
-58741.1
979.24
-58976.3
941.123
-59202
903.205
-59418.3
865.493
-59625.2
827.997
-59822.8
790.724
-60011.2
753.682
-60190.3
716.879
-60360.3
680.321
-60521.3
644.017
-60673.2
607.973
-60816.2
572.195
-60950.3
536.69
-61075.6
501.464
-61192.2
466.523
-61300.2
431.872
-61399.5
397.518
-61490.4
363.465
-61572.8
329.719
-61646.8
296.283
-61712.6
263.163
-61770.2
230.363
-61819.7
197.886
-61861.1
165.738
-61894.6
133.921
-61920.3
102.438
-61938.1
71.294
-61948.3
40.4908
-61950.8
10.0314
-61945.9
-20.0816
-61933.5
-49.8458
-61913.7
-79.2591
-61886.7
-108.319
-61852.5
-137.025
-61811.3
-165.374
-61763
-193.366
-61707.8
-220.999
-61645.9
-248.271
-61577.2
-275.183
-61501.8
-301.734
-61420
-327.922
-61331.7
-353.748
-61237
-379.211
-61136
-404.312
-61028.9
-429.051
-60915.7
-453.427
-60796.5
-477.441
-60671.4
-501.094
-60540.4
-524.387
-60403.8
-547.32
-60261.5
-569.895
-60113.6
-592.112
-59960.3
-613.973
-59801.6
-635.479
-59637.7
-656.631
-59468.5
-677.432
-59294.2
-697.883
-59115
-717.985
-58930.7
-737.741
-58741.7
-757.153
-58547.8
-776.223
-58349.3
-794.952
-58146.2
-813.344
-57938.6
-831.401
-57726.6
-849.124
-57510.2
-866.518
-57289.5
-883.583
-57064.7
-900.324
-56835.8
-916.743
-56602.8
-932.842
-56365.9
-948.624
-56125.2
-964.093
-55880.6
-979.252
-55632.4
-994.103
-55380.5
-1008.65
-55125.1
-1022.89
-54866.1
-1036.84
-54603.8
-1050.49
-54338.1
-1063.86
-54069.2
-1076.93
-53797.1
-1089.72
-53521.8
-1102.22
-53243.5
-1114.45
-52962.2
-1126.4
-52678
-1138.09
-52390.9
-1149.5
-52101.1
-1160.65
-51808.5
-1171.54
-51513.3
-1182.17
-51215.5
-1192.55
-50915.1
-1202.68
-50612.3
-1212.56
-50307.1
-1222.2
-49999.5
-1231.6
-49689.7
-1240.76
-49377.6
-1249.7
-49063.3
-1258.4
-48746.9
-1266.87
-48428.5
-1275.13
-48108
-1283.17
-47785.6
-1290.99
-47461.3
-1298.6
-47135.1
-1306
-46807.2
-1313.2
-46477.4
-1320.2
-46146
-1327
-45813
-1333.61
-45478.3
-1340.03
-45142.1
-1346.26
-44804.3
-1352.3
-44465.1
-1358.17
-44124.5
-1363.86
-43782.5
-1369.38
-43439.1
-1374.73
-43094.5
-1379.91
-42748.6
-1384.92
-42401.5
-1389.78
-42053.2
-1394.48
-41703.8
-1399.02
-41353.3
-1403.42
-41001.7
-1407.66
-40649.1
-1411.77
-40295.5
-1415.73
-39940.9
-1419.55
-39585.4
-1423.24
-39229
-1426.79
-38871.8
-1430.22
-38513.7
-1433.52
-38154.9
-1436.69
-37795.3
-1439.75
-37434.9
-1442.68
-37073.8
-1445.51
-36712.1
-1448.21
-36349.7
-1450.81
-35986.7
-1453.31
-35623.1
-1455.69
-35258.9
-1457.98
-34894.1
-1460.17
-34528.9
-1462.26
-34163.1
-1464.26
-33796.8
-1466.16
-33430.1
-1467.98
-33063
-1469.71
-32695.4
-1471.35
-32327.5
-1472.92
-31959.2
-1474.4
-31590.5
-1475.81
-31221.5
-1477.14
-30852.1
-1478.4
-30482.5
-1479.59
-30112.6
-1480.71
-29742.4
-1481.76
-29372
-1482.75
-29001.3
-1483.67
-28630.5
-1484.54
-28259.4
-1485.35
-27888.1
-1486.1
-27516.6
-1486.8
-27145
-1487.45
-26773.2
-1488.04
-26401.3
-1488.59
-26029.3
-1489.09
-25657.1
-1489.54
-25284.9
-1489.95
-24912.5
-1490.32
-24540.1
-1490.65
-24167.6
-1490.94
-23795
-1491.19
-23422.3
-1491.41
-23049.6
-1491.59
-22676.9
-1491.74
-22304.1
-1491.87
-21931.3
-1491.96
-21558.5
-1492.02
-21185.7
-1492.06
-20812.9
-1492.07
-20440.1
-1492.06
-20067.2
-1492.03
-19694.4
-1491.97
-19321.6
-1491.9
-18948.8
-1491.8
-18576.1
-1491.69
-18203.4
-1491.56
-17830.7
-1491.42
-17458
-1491.26
-17085.4
-1491.09
-16712.9
-1490.91
-16340.3
-1490.72
-15967.8
-1490.52
-15595.4
-1490.31
-15223
-1490.09
-14850.7
-1489.86
-14478.5
-1489.63
-14106.3
-1489.39
-13734.1
-1489.15
-13362
-1488.9
-12990
-1488.65
-12618
-1488.4
-12246.1
-1488.15
-11874.3
-1487.9
-11502.5
-1487.65
-11130.7
-1487.4
-10759.1
-1487.15
-10387.5
-1486.9
-10015.9
-1486.66
-9644.43
-1486.42
-9273
-1486.18
-8901.62
-1485.95
-8530.3
-1485.72
-8159.03
-1485.5
-7787.81
-1485.29
-7416.65
-1485.08
-7045.53
-1484.89
-6674.45
-1484.7
-6303.43
-1484.51
-5932.44
-1484.34
-5561.49
-1484.18
-5190.58
-1484.03
-4819.71
-1483.89
-4448.86
-1483.76
-4078.05
-1483.64
-3707.26
-1483.54
-3336.49
-1483.45
-2965.73
-1483.38
-2595
-1483.31
-2224.27
-1483.27
-1853.55
-1483.23
-1482.84
-1483.21
-1112.13
-1483.2
-741.426
-1483.19
-370.715
-1483.2
-1483.21
-1313.46
6881.31
-2602.17
6721.11
-3845.87
6420.51
-5031.31
6036.54
-6153.35
5631.19
-7214.24
5255.46
-8221.38
4941.13
-9184.76
4700.04
-10114.7
4528.85
-11020.4
4415.6
-11909.3
4345.4
-12786.7
4304.29
-13656.3
4280.98
-14520.4
4267.29
-15380.3
4257.78
-16236.7
4249.14
-17089.7
4239.51
-17939.3
4227.95
-18785.2
4214.11
-19627.2
4197.92
-20465.1
4179.47
-21298.4
4158.92
-22126.9
4136.44
-22950.4
4112.21
-23768.4
4086.37
-24580.8
4059.05
-25387.4
4030.36
-26187.8
4000.42
-26981.9
3969.29
-27769.5
3937.07
-28550.4
3903.8
-29324.3
3869.56
-30091.2
3834.4
-30850.9
3798.35
-31603.1
3761.47
-32347.7
3723.79
-33084.6
3685.36
-33813.7
3646.19
-34534.8
3606.34
-35247.7
3565.82
-35952.4
3524.67
-36648.7
3482.91
-37336.6
3440.57
-38015.8
3397.68
-38686.4
3354.25
-39348.1
3310.32
-40001
3265.91
-40644.9
3221.03
-41279.7
3175.72
-41905.3
3129.99
-42521.7
3083.87
-43128.8
3037.37
-43726.6
2990.52
-44314.9
2943.34
-44893.7
2895.85
-45462.9
2848.06
-46022.5
2800
-46572.4
2751.69
-47112.6
2703.14
-47643.1
2654.38
-48163.8
2605.42
-48674.6
2556.28
-49175.6
2506.98
-49666.7
2457.54
-50147.9
2407.98
-50619.1
2358.3
-51080.4
2308.54
-51531.7
2258.7
-51973.1
2208.81
-52404.4
2158.88
-52825.8
2108.93
-53237.2
2058.96
-53638.5
2009.01
-54029.9
1959.08
-54411.4
1909.19
-54782.8
1859.36
-55144.3
1809.59
-55495.9
1759.91
-55837.5
1710.33
-56169.3
1660.86
-56491.2
1611.51
-56803.3
1562.31
-57105.5
1513.26
-57398
1464.37
-57680.7
1415.66
-57953.8
1367.15
-58217.2
1318.83
-58470.9
1270.74
-58715.1
1222.86
-58949.8
1175.23
-59175
1127.84
-59390.8
1080.71
-59597.2
1033.85
-59794.3
987.276
-59982.2
940.986
-60160.8
894.995
-60330.4
849.311
-60490.8
803.944
-60642.3
758.902
-60784.8
714.194
-60918.5
669.827
-61043.3
625.809
-61159.5
582.148
-61267
538.85
-61365.9
495.923
-61456.3
453.372
-61538.3
411.205
-61611.9
369.426
-61677.3
328.042
-61734.4
287.058
-61783.5
246.48
-61824.5
206.311
-61857.6
166.556
-61882.9
127.221
-61900.3
88.3077
-61910.1
49.8212
-61912.3
11.7647
-61907
-25.8588
-61894.2
-63.0461
-61874.1
-99.7946
-61846.7
-136.102
-61812.2
-171.965
-61770.6
-207.384
-61722
-242.355
-61666.6
-276.877
-61604.3
-310.949
-61535.3
-344.57
-61459.6
-377.739
-61377.5
-410.456
-61288.9
-442.719
-61193.9
-474.529
-61092.7
-505.886
-60985.3
-536.79
-60871.9
-567.241
-60752.4
-597.24
-60627.1
-626.788
-60495.9
-655.884
-60359
-684.532
-60216.5
-712.731
-60068.4
-740.483
-59914.9
-767.79
-59756.1
-794.654
-59591.9
-821.075
-59422.6
-847.057
-59248.1
-872.602
-59068.7
-897.711
-58884.3
-922.387
-58695.1
-946.633
-58501.1
-970.451
-58302.5
-993.844
-58099.3
-1016.82
-57891.5
-1039.37
-57679.4
-1061.5
-57462.9
-1083.23
-57242.2
-1104.54
-57017.3
-1125.45
-56788.3
-1145.95
-56555.3
-1166.06
-56318.3
-1185.77
-56077.5
-1205.09
-55832.9
-1224.02
-55584.6
-1242.57
-55332.7
-1260.73
-55077.3
-1278.52
-54818.3
-1295.94
-54556
-1312.99
-54290.3
-1329.67
-54021.4
-1346
-53749.3
-1361.97
-53474
-1377.58
-53195.8
-1392.85
-52914.5
-1407.78
-52630.3
-1422.37
-52343.3
-1436.62
-52053.5
-1450.54
-51761
-1464.14
-51465.9
-1477.41
-51168.1
-1490.37
-50867.9
-1503.02
-50565.1
-1515.36
-50260
-1527.39
-49952.5
-1539.12
-49642.8
-1550.56
-49330.8
-1561.71
-49016.7
-1572.58
-48700.4
-1583.16
-48382.1
-1593.47
-48061.8
-1603.5
-47739.5
-1613.26
-47415.3
-1622.76
-47089.3
-1632.01
-46761.5
-1640.99
-46432
-1649.73
-46100.7
-1658.22
-45767.9
-1666.47
-45433.4
-1674.48
-45097.3
-1682.25
-44759.8
-1689.8
-44420.8
-1697.12
-44080.4
-1704.23
-43738.6
-1711.11
-43395.4
-1717.78
-43051
-1724.25
-42705.3
-1730.51
-42358.5
-1736.57
-42010.4
-1742.43
-41661.2
-1748.1
-41310.9
-1753.59
-40959.6
-1758.89
-40607.2
-1764.01
-40253.9
-1768.95
-39899.6
-1773.72
-39544.4
-1778.32
-39188.3
-1782.75
-38831.3
-1787.03
-38473.5
-1791.14
-38114.9
-1795.1
-37755.6
-1798.91
-37395.5
-1802.57
-37034.8
-1806.09
-36673.3
-1809.47
-36311.2
-1812.71
-35948.5
-1815.82
-35585.2
-1818.8
-35221.3
-1821.65
-34856.9
-1824.38
-34491.9
-1826.99
-34126.5
-1829.48
-33760.5
-1831.85
-33394.2
-1834.11
-33027.3
-1836.27
-32660.1
-1838.32
-32292.5
-1840.27
-31924.5
-1842.12
-31556.2
-1843.87
-31187.5
-1845.53
-30818.5
-1847.1
-30449.2
-1848.58
-30079.7
-1849.97
-29709.9
-1851.28
-29339.8
-1852.51
-28969.5
-1853.67
-28598.9
-1854.75
-28228.2
-1855.75
-27857.3
-1856.69
-27486.2
-1857.56
-27115
-1858.36
-26743.6
-1859.1
-26372
-1859.78
-26000.4
-1860.4
-25628.6
-1860.96
-25256.7
-1861.47
-24884.7
-1861.93
-24512.6
-1862.33
-24140.5
-1862.69
-23768.3
-1863.01
-23396.1
-1863.28
-23023.7
-1863.5
-22651.4
-1863.69
-22279
-1863.84
-21906.6
-1863.95
-21534.2
-1864.03
-21161.8
-1864.07
-20789.4
-1864.08
-20416.9
-1864.07
-20044.5
-1864.02
-19672.1
-1863.95
-19299.7
-1863.85
-18927.3
-1863.73
-18555
-1863.59
-18182.7
-1863.43
-17810.4
-1863.25
-17438.1
-1863.05
-17065.9
-1862.84
-16693.8
-1862.61
-16321.7
-1862.36
-15949.6
-1862.11
-15577.6
-1861.84
-15205.6
-1861.57
-14833.7
-1861.28
-14461.9
-1860.99
-14090.1
-1860.69
-13718.3
-1860.39
-13346.7
-1860.08
-12975
-1859.76
-12603.5
-1859.45
-12232
-1859.13
-11860.6
-1858.82
-11489.2
-1858.5
-11117.9
-1858.19
-10746.7
-1857.88
-10375.5
-1857.57
-10004.4
-1857.26
-9633.28
-1856.96
-9262.28
-1856.66
-8891.32
-1856.37
-8520.43
-1856.09
-8149.59
-1855.81
-7778.79
-1855.55
-7408.05
-1855.29
-7037.36
-1855.04
-6666.72
-1854.8
-6296.12
-1854.57
-5925.56
-1854.36
-5555.04
-1854.15
-5184.56
-1853.96
-4814.12
-1853.79
-4443.7
-1853.63
-4073.31
-1853.48
-3702.95
-1853.35
-3332.61
-1853.24
-2962.29
-1853.15
-2591.98
-1853.07
-2221.69
-1853.01
-1851.4
-1852.96
-1481.12
-1852.93
-1110.84
-1852.92
-740.563
-1852.92
-370.283
-1852.92
-1852.93
-1282.43
8162.96
-2543.66
7981.58
-3766.69
7642.77
-4939.91
7209.01
-6058.07
6748.62
-7122.05
6318.71
-8137.17
5955.53
-9111.3
5673.46
-10053
5469.84
-10970.2
5332.09
-11869.5
5244.01
-12756
5190.05
-13633.2
5157.49
-14503.5
5136.94
-15368.5
5122.05
-16228.9
5108.85
-17085.1
5095.04
-17937.2
5079.41
-18785.2
5061.42
-19628.9
5040.91
-20468.1
5017.93
-21302.4
4992.6
-22131.8
4965.11
-22955.9
4935.6
-23774.4
4904.24
-24587.3
4871.17
-25394.1
4836.51
-26194.8
4800.38
-26989
4762.86
-27776.7
4724.05
-28557.6
4684.02
-29331.5
4642.82
-30098.4
4600.53
-30857.9
4557.2
-31610
4512.87
-32354.5
4467.6
-33091.2
4421.42
-33820.1
4374.37
-34541
4326.5
-35253.7
4277.84
-35958.1
4228.42
-36654.2
4178.28
-37341.7
4127.44
-38020.7
4075.94
-38690.9
4023.8
-39352.3
3971.06
-40004.8
3917.74
-40648.4
3863.87
-41282.8
3809.48
-41908.1
3754.59
-42524.1
3699.22
-43130.8
3643.41
-43728.1
3587.18
-44316
3530.55
-44894.4
3473.54
-45463.2
3416.19
-46022.3
3358.51
-46571.8
3300.52
-47111.6
3242.25
-47641.6
3183.73
-48161.8
3124.97
-48672.2
3066
-49172.7
3006.83
-49663.3
2947.5
-50144
2888.01
-50614.8
2828.4
-51075.5
2768.68
-51526.4
2708.88
-51967.2
2649
-52398
2589.08
-52818.9
2529.14
-53229.7
2469.18
-53630.6
2409.24
-54021.4
2349.32
-54402.3
2289.46
-54773.3
2229.66
-55134.2
2169.94
-55485.2
2110.33
-55826.4
2050.83
-56157.6
1991.47
-56478.9
1932.26
-56790.4
1873.22