/*--------------------------------*- C++ -*----------------------------------*\
| =========                 |                                                 |
| \\      /  F ield         | OpenFOAM: The Open Source CFD Toolbox           |
|  \\    /   O peration     | Version:  2212                                  |
|   \\  /    A nd           | Website:  www.openfoam.com                      |
|    \\/     M anipulation  |                                                 |
\*---------------------------------------------------------------------------*/
FoamFile
{
    version     2.0;
    format      ascii;
    arch        "LSB;label=32;scalar=64";
    class       volScalarField;
    location    "1020";
    object      p_rgh;
}
// * * * * * * * * * * * * * * * * * * * * * * * * * * * * * * * * * * * * * //

dimensions      [1 -1 -2 0 0 0 0];

internalField   nonuniform List<scalar> 
204800
(
53.1968
53.1951
53.1936
53.1909
53.1876
53.1832
53.1778
53.1712
53.1634
53.1544
53.1443
53.1331
53.1208
53.1075
53.0931
53.0778
53.0615
53.0443
53.0262
53.0071
52.9871
52.9662
52.9444
52.9217
52.8981
52.8737
52.8483
52.8222
52.7951
52.7672
52.7385
52.709
52.6787
52.6475
52.6156
52.5829
52.5494
52.5151
52.4801
52.4443
52.4079
52.3707
52.3328
52.2942
52.2549
52.215
52.1744
52.1332
52.0913
52.0488
52.0057
51.9621
51.9178
51.873
51.8277
51.7818
51.7354
51.6885
51.6411
51.5933
51.545
51.4962
51.447
51.3974
51.3474
51.297
51.2463
51.1952
51.1437
51.092
51.0399
50.9876
50.935
50.8821
50.829
50.7756
50.7221
50.6683
50.6144
50.5603
50.5061
50.4517
50.3973
50.3427
50.288
50.2333
50.1786
50.1238
50.0689
50.0141
49.9593
49.9045
49.8497
49.795
49.7404
49.6859
49.6315
49.5771
49.523
49.4689
49.415
49.3613
49.3078
49.2545
49.2014
49.1485
49.0958
49.0435
48.9913
48.9395
48.888
48.8367
48.7858
48.7352
48.685
48.6351
48.5855
48.5364
48.4876
48.4392
48.3912
48.3437
48.2966
48.2499
48.2036
48.1578
48.1125
48.0677
48.0233
47.9794
47.9361
47.8932
47.8508
47.809
47.7677
47.7269
47.6867
47.647
47.6079
47.5693
47.5313
47.4939
47.457
47.4207
47.3851
47.3499
47.3154
47.2815
47.2482
47.2155
47.1834
47.1519
47.121
47.0907
47.061
47.0319
47.0035
46.9757
46.9485
46.9219
46.8959
46.8706
46.8458
46.8217
46.7982
46.7754
46.7531
46.7315
46.7104
46.69
46.6702
46.651
46.6324
46.6144
46.597
46.5802
46.5639
46.5483
46.5333
46.5188
46.5049
46.4916
46.4789
46.4667
46.4551
46.444
46.4335
46.4235
46.4141
46.4052
46.3968
46.3889
46.3816
46.3748
46.3684
46.3626
46.3573
46.3524
46.348
46.3441
46.3407
46.3377
46.3351
46.333
46.3313
46.3301
46.3293
46.3289
46.3288
46.3292
46.33
46.3312
46.3327
46.3346
46.3368
46.3394
46.3423
46.3456
46.3492
46.3531
46.3573
46.3618
46.3666
46.3717
46.377
46.3826
46.3885
46.3946
46.401
46.4076
46.4144
46.4214
46.4286
46.4361
46.4437
46.4515
46.4595
46.4676
46.4759
46.4843
46.4929
46.5016
46.5104
46.5194
46.5285
46.5376
46.5469
46.5562
46.5656
46.5751
46.5846
46.5942
46.6038
46.6135
46.6232
46.6329
46.6426
46.6524
46.6621
46.6719
46.6816
46.6913
46.701
46.7106
46.7202
46.7298
46.7393
46.7487
46.7581
46.7674
46.7766
46.7858
46.7948
46.8038
46.8127
46.8214
46.83
46.8386
46.847
46.8552
46.8634
46.8714
46.8792
46.8869
46.8945
46.9018
46.9091
46.9161
46.923
46.9298
46.9363
46.9427
46.9489
46.9548
46.9606
46.9662
46.9716
46.9768
46.9818
46.9866
46.9912
46.9956
46.9997
47.0037
47.0074
47.0109
47.0141
47.0172
47.02
47.0226
47.0249
47.027
47.0289
47.0306
47.032
47.0332
47.0342
47.0349
47.0353
47.0356
53.1023
53.1007
53.0982
53.0944
53.0897
53.0839
53.0772
53.0694
53.0608
53.0511
53.0405
53.0289
53.0164
53.0029
52.9885
52.9731
52.9568
52.9396
52.9214
52.9023
52.8824
52.8615
52.8397
52.8171
52.7935
52.7691
52.7438
52.7177
52.6907
52.6629
52.6342
52.6047
52.5745
52.5434
52.5115
52.4788
52.4454
52.4112
52.3762
52.3406
52.3041
52.267
52.2292
52.1907
52.1515
52.1116
52.0711
52.0299
51.9882
51.9458
51.9028
51.8592
51.815
51.7703
51.725
51.6792
51.6329
51.5861
51.5388
51.4911
51.4428
51.3942
51.3451
51.2956
51.2457
51.1954
51.1447
51.0937
51.0424
50.9907
50.9388
50.8865
50.834
50.7812
50.7282
50.6749
50.6215
50.5679
50.514
50.46
50.4059
50.3517
50.2973
50.2428
50.1883
50.1337
50.079
50.0243
49.9696
49.9149
49.8601
49.8054
49.7508
49.6962
49.6417
49.5873
49.5329
49.4787
49.4246
49.3707
49.3169
49.2633
49.2099
49.1567
49.1036
49.0509
48.9983
48.946
48.894
48.8423
48.7908
48.7397
48.6889
48.6384
48.5882
48.5384
48.489
48.4399
48.3912
48.3429
48.2951
48.2476
48.2006
48.154
48.1078
48.0621
48.0169
47.9721
47.9278
47.884
47.8408
47.798
47.7557
47.7139
47.6727
47.632
47.5919
47.5523
47.5132
47.4747
47.4368
47.3994
47.3626
47.3264
47.2908
47.2558
47.2213
47.1875
47.1542
47.1215
47.0895
47.0581
47.0272
46.997
46.9674
46.9384
46.91
46.8822
46.8551
46.8285
46.8026
46.7773
46.7526
46.7286
46.7051
46.6823
46.6601
46.6385
46.6175
46.5971
46.5773
46.5582
46.5396
46.5216
46.5043
46.4875
46.4713
46.4557
46.4407
46.4263
46.4124
46.3991
46.3864
46.3743
46.3627
46.3516
46.3411
46.3312
46.3217
46.3129
46.3045
46.2967
46.2893
46.2825
46.2762
46.2704
46.2651
46.2602
46.2558
46.2519
46.2485
46.2455
46.243
46.2409
46.2392
46.238
46.2372
46.2367
46.2367
46.2371
46.2379
46.239
46.2406
46.2425
46.2447
46.2473
46.2502
46.2535
46.2571
46.261
46.2652
46.2697
46.2744
46.2795
46.2849
46.2905
46.2963
46.3024
46.3088
46.3154
46.3222
46.3292
46.3364
46.3438
46.3514
46.3592
46.3672
46.3753
46.3836
46.392
46.4006
46.4093
46.4181
46.427
46.4361
46.4452
46.4544
46.4637
46.4731
46.4826
46.4921
46.5017
46.5113
46.5209
46.5306
46.5403
46.5501
46.5598
46.5695
46.5792
46.5889
46.5986
46.6083
46.6179
46.6275
46.637
46.6465
46.656
46.6653
46.6746
46.6838
46.693
46.702
46.7109
46.7198
46.7285
46.7371
46.7456
46.754
46.7623
46.7704
46.7784
46.7862
46.7939
46.8014
46.8088
46.816
46.8231
46.83
46.8367
46.8432
46.8496
46.8557
46.8617
46.8675
46.8731
46.8785
46.8837
46.8887
46.8934
46.898
46.9024
46.9065
46.9104
46.9141
46.9176
46.9209
46.9239
46.9267
46.9293
46.9317
46.9338
46.9357
46.9373
46.9387
46.9399
46.9409
46.9416
46.9421
46.9423
53.0826
53.0811
53.0786
53.0748
53.0701
53.0643
53.0575
53.0498
53.0411
53.0314
53.0208
53.0092
52.9966
52.9831
52.9687
52.9533
52.937
52.9197
52.9015
52.8825
52.8625
52.8416
52.8198
52.7971
52.7736
52.7492
52.7239
52.6978
52.6708
52.6429
52.6143
52.5848
52.5545
52.5234
52.4916
52.4589
52.4255
52.3913
52.3563
52.3206
52.2842
52.2471
52.2093
52.1708
52.1316
52.0917
52.0512
52.0101
51.9683
51.9259
51.8829
51.8393
51.7952
51.7505
51.7052
51.6594
51.6131
51.5663
51.519
51.4713
51.4231
51.3744
51.3253
51.2758
51.2259
51.1756
51.125
51.074
51.0227
50.971
50.9191
50.8668
50.8143
50.7615
50.7085
50.6553
50.6018
50.5482
50.4944
50.4404
50.3863
50.3321
50.2777
50.2233
50.1687
50.1141
50.0595
50.0048
49.95
49.8953
49.8406
49.786
49.7313
49.6767
49.6222
49.5678
49.5135
49.4593
49.4052
49.3513
49.2975
49.2439
49.1905
49.1373
49.0843
49.0315
48.979
48.9267
48.8747
48.823
48.7715
48.7204
48.6696
48.6191
48.569
48.5192
48.4697
48.4207
48.372
48.3237
48.2759
48.2284
48.1814
48.1348
48.0887
48.043
47.9977
47.953
47.9087
47.8649
47.8217
47.7789
47.7366
47.6949
47.6537
47.613
47.5728
47.5332
47.4942
47.4557
47.4178
47.3804
47.3437
47.3075
47.2719
47.2368
47.2024
47.1685
47.1353
47.1026
47.0706
47.0392
47.0083
46.9781
46.9485
46.9195
46.8912
46.8634
46.8363
46.8097
46.7838
46.7585
46.7339
46.7098
46.6864
46.6635
46.6413
46.6197
46.5988
46.5784
46.5586
46.5395
46.5209
46.5029
46.4856
46.4688
46.4526
46.437
46.422
46.4076
46.3938
46.3805
46.3678
46.3556
46.344
46.333
46.3225
46.3126
46.3031
46.2943
46.2859
46.2781
46.2708
46.264
46.2576
46.2518
46.2465
46.2417
46.2373
46.2334
46.23
46.227
46.2245
46.2224
46.2207
46.2195
46.2186
46.2182
46.2182
46.2186
46.2194
46.2206
46.2221
46.224
46.2262
46.2288
46.2317
46.235
46.2386
46.2425
46.2467
46.2512
46.256
46.261
46.2664
46.272
46.2779
46.284
46.2903
46.2969
46.3037
46.3107
46.318
46.3254
46.333
46.3408
46.3487
46.3569
46.3651
46.3736
46.3821
46.3908
46.3996
46.4086
46.4176
46.4268
46.436
46.4453
46.4547
46.4642
46.4737
46.4833
46.4929
46.5025
46.5122
46.5219
46.5316
46.5414
46.5511
46.5608
46.5705
46.5802
46.5899
46.5995
46.6091
46.6186
46.6281
46.6375
46.6469
46.6562
46.6654
46.6745
46.6836
46.6925
46.7013
46.7101
46.7187
46.7272
46.7356
46.7438
46.7519
46.7599
46.7678
46.7754
46.783
46.7904
46.7976
46.8046
46.8115
46.8182
46.8248
46.8311
46.8373
46.8433
46.849
46.8546
46.86
46.8652
46.8702
46.875
46.8796
46.8839
46.8881
46.892
46.8957
46.8992
46.9024
46.9055
46.9083
46.9109
46.9132
46.9153
46.9172
46.9189
46.9203
46.9215
46.9224
46.9231
46.9236
46.9238
52.9992
52.9977
52.9948
52.9906
52.9852
52.9787
52.9713
52.9629
52.9537
52.9436
52.9326
52.9207
52.9079
52.8942
52.8797
52.8642
52.8478
52.8305
52.8123
52.7932
52.7732
52.7523
52.7305
52.7079
52.6843
52.6599
52.6347
52.6086
52.5816
52.5538
52.5252
52.4957
52.4655
52.4344
52.4026
52.37
52.3366
52.3024
52.2675
52.2319
52.1955
52.1585
52.1207
52.0822
52.0431
52.0033
51.9628
51.9217
51.88
51.8377
51.7947
51.7512
51.7071
51.6625
51.6173
51.5716
51.5253
51.4786
51.4313
51.3837
51.3355
51.2869
51.2379
51.1885
51.1386
51.0884
51.0378
50.9869
50.9357
50.8841
50.8322
50.78
50.7276
50.6749
50.622
50.5688
50.5154
50.4619
50.4081
50.3542
50.3002
50.246
50.1917
50.1374
50.0829
50.0284
49.9738
49.9192
49.8645
49.8099
49.7553
49.7007
49.6461
49.5916
49.5372
49.4828
49.4286
49.3745
49.3205
49.2666
49.2129
49.1594
49.1061
49.0529
49
48.9473
48.8949
48.8427
48.7907
48.7391
48.6877
48.6367
48.5859
48.5355
48.4854
48.4357
48.3864
48.3374
48.2888
48.2406
48.1928
48.1454
48.0984
48.0519
48.0058
47.9602
47.9151
47.8704
47.8262
47.7825
47.7392
47.6965
47.6543
47.6126
47.5715
47.5309
47.4908
47.4513
47.4123
47.3739
47.336
47.2987
47.262
47.2258
47.1903
47.1553
47.1209
47.0871
47.0539
47.0213
46.9893
46.958
46.9272
46.897
46.8675
46.8385
46.8102
46.7825
46.7554
46.7289
46.703
46.6778
46.6532
46.6291
46.6057
46.583
46.5608
46.5392
46.5183
46.4979
46.4782
46.4591
46.4406
46.4226
46.4053
46.3886
46.3724
46.3569
46.3419
46.3275
46.3137
46.3004
46.2877
46.2756
46.264
46.253
46.2426
46.2326
46.2232
46.2144
46.2061
46.1982
46.1909
46.1841
46.1779
46.1721
46.1667
46.1619
46.1576
46.1537
46.1503
46.1473
46.1448
46.1427
46.141
46.1398
46.139
46.1386
46.1386
46.139
46.1398
46.1409
46.1425
46.1444
46.1466
46.1492
46.1522
46.1554
46.159
46.1629
46.1671
46.1716
46.1764
46.1815
46.1868
46.1924
46.1983
46.2044
46.2107
46.2173
46.2241
46.2311
46.2384
46.2458
46.2534
46.2612
46.2691
46.2772
46.2855
46.2939
46.3025
46.3112
46.32
46.3289
46.338
46.3471
46.3563
46.3656
46.375
46.3845
46.394
46.4035
46.4131
46.4228
46.4325
46.4422
46.4519
46.4616
46.4713
46.481
46.4907
46.5004
46.5101
46.5197
46.5292
46.5388
46.5483
46.5577
46.567
46.5763
46.5855
46.5946
46.6037
46.6126
46.6214
46.6301
46.6388
46.6473
46.6556
46.6639
46.672
46.6799
46.6878
46.6955
46.703
46.7104
46.7176
46.7246
46.7315
46.7382
46.7447
46.7511
46.7572
46.7632
46.769
46.7746
46.7799
46.7851
46.7901
46.7949
46.7995
46.8038
46.8079
46.8119
46.8156
46.819
46.8223
46.8253
46.8281
46.8307
46.8331
46.8352
46.8371
46.8387
46.8401
46.8413
46.8423
46.843
46.8435
46.8437
52.9667
52.9653
52.9624
52.9582
52.9529
52.9465
52.9391
52.9308
52.9215
52.9114
52.9004
52.8885
52.8757
52.862
52.8474
52.8319
52.8154
52.7981
52.7799
52.7608
52.7408
52.7199
52.6981
52.6754
52.6518
52.6274
52.6022
52.576
52.5491
52.5213
52.4926
52.4632
52.4329
52.4019
52.37
52.3374
52.304
52.2699
52.235
52.1993
52.163
52.1259
52.0881
52.0497
52.0105
51.9707
51.9303
51.8892
51.8475
51.8052
51.7622
51.7187
51.6746
51.63
51.5848
51.5391
51.4929
51.4461
51.3989
51.3512
51.3031
51.2545
51.2055
51.1561
51.1062
51.056
51.0055
50.9546
50.9033
50.8518
50.7999
50.7477
50.6953
50.6426
50.5897
50.5365
50.4832
50.4296
50.3759
50.322
50.268
50.2139
50.1596
50.1052
50.0508
49.9962
49.9417
49.8871
49.8325
49.7778
49.7232
49.6686
49.6141
49.5596
49.5052
49.4508
49.3966
49.3425
49.2885
49.2347
49.181
49.1275
49.0742
49.0211
48.9681
48.9155
48.863
48.8108
48.7589
48.7073
48.6559
48.6049
48.5542
48.5038
48.4537
48.404
48.3547
48.3057
48.2571
48.2089
48.1611
48.1138
48.0668
48.0203
47.9743
47.9287
47.8835
47.8389
47.7947
47.751
47.7078
47.6651
47.6229
47.5812
47.5401
47.4995
47.4594
47.4199
47.3809
47.3425
47.3047
47.2674
47.2307
47.1946
47.159
47.124
47.0897
47.0559
47.0227
46.9901
46.9582
46.9268
46.896
46.8659
46.8363
46.8074
46.7791
46.7514
46.7243
46.6978
46.672
46.6468
46.6221
46.5981
46.5748
46.552
46.5298
46.5083
46.4874
46.467
46.4473
46.4282
46.4097
46.3918
46.3745
46.3577
46.3416
46.3261
46.3111
46.2967
46.2829
46.2697
46.257
46.2449
46.2333
46.2223
46.2119
46.2019
46.1926
46.1837
46.1754
46.1676
46.1603
46.1535
46.1472
46.1415
46.1362
46.1313
46.127
46.1231
46.1197
46.1168
46.1142
46.1122
46.1105
46.1093
46.1085
46.1081
46.1081
46.1085
46.1093
46.1105
46.112
46.1139
46.1162
46.1188
46.1217
46.125
46.1286
46.1325
46.1367
46.1412
46.146
46.1511
46.1565
46.1621
46.1679
46.1741
46.1804
46.187
46.1938
46.2008
46.208
46.2155
46.2231
46.2309
46.2388
46.2469
46.2552
46.2636
46.2722
46.2809
46.2897
46.2987
46.3077
46.3168
46.3261
46.3354
46.3448
46.3542
46.3637
46.3733
46.3829
46.3925
46.4022
46.4119
46.4216
46.4314
46.4411
46.4508
46.4605
46.4702
46.4798
46.4894
46.499
46.5086
46.518
46.5275
46.5368
46.5461
46.5553
46.5644
46.5734
46.5824
46.5912
46.5999
46.6085
46.617
46.6254
46.6337
46.6418
46.6497
46.6576
46.6652
46.6728
46.6801
46.6874
46.6944
46.7013
46.708
46.7145
46.7209
46.727
46.733
46.7388
46.7443
46.7497
46.7549
46.7599
46.7647
46.7692
46.7736
46.7777
46.7817
46.7854
46.7888
46.7921
46.7951
46.7979
46.8005
46.8029
46.805
46.8069
46.8085
46.8099
46.8111
46.8121
46.8128
46.8132
46.8135
52.8911
52.8897
52.8866
52.8823
52.8766
52.87
52.8622
52.8536
52.8441
52.8337
52.8225
52.8104
52.7974
52.7835
52.7688
52.7532
52.7367
52.7193
52.701
52.6819
52.6618
52.6409
52.6191
52.5964
52.5729
52.5485
52.5232
52.4971
52.4701
52.4423
52.4137
52.3843
52.354
52.323
52.2912
52.2586
52.2252
52.1911
52.1562
52.1206
52.0843
52.0472
52.0095
51.9711
51.932
51.8922
51.8518
51.8107
51.7691
51.7268
51.6839
51.6404
51.5964
51.5518
51.5066
51.461
51.4148
51.3681
51.3209
51.2733
51.2252
51.1766
51.1277
51.0783
51.0285
50.9784
50.9279
50.877
50.8258
50.7743
50.7225
50.6704
50.618
50.5654
50.5125
50.4594
50.4061
50.3526
50.2989
50.2451
50.1911
50.137
50.0828
50.0285
49.9741
49.9196
49.8651
49.8106
49.756
49.7015
49.6469
49.5924
49.5379
49.4834
49.4291
49.3748
49.3206
49.2666
49.2127
49.1589
49.1052
49.0518
48.9985
48.9455
48.8926
48.84
48.7876
48.7355
48.6836
48.632
48.5807
48.5298
48.4791
48.4287
48.3787
48.3291
48.2798
48.2309
48.1824
48.1342
48.0865
48.0392
47.9923
47.9458
47.8998
47.8543
47.8092
47.7646
47.7204
47.6768
47.6336
47.591
47.5489
47.5072
47.4662
47.4256
47.3856
47.3461
47.3072
47.2688
47.231
47.1938
47.1571
47.1211
47.0856
47.0506
47.0163
46.9826
46.9494
46.9169
46.885
46.8537
46.8229
46.7928
46.7633
46.7344
46.7062
46.6785
46.6514
46.625
46.5992
46.574
46.5494
46.5255
46.5021
46.4794
46.4573
46.4357
46.4148
46.3946
46.3749
46.3558
46.3373
46.3194
46.3021
46.2854
46.2693
46.2538
46.2389
46.2245
46.2107
46.1975
46.1849
46.1728
46.1613
46.1503
46.1399
46.13
46.1206
46.1118
46.1035
46.0957
46.0884
46.0817
46.0754
46.0696
46.0644
46.0596
46.0552
46.0514
46.048
46.045
46.0425
46.0405
46.0389
46.0377
46.0369
46.0365
46.0365
46.0369
46.0377
46.0389
46.0405
46.0424
46.0446
46.0473
46.0502
46.0535
46.0571
46.061
46.0652
46.0697
46.0745
46.0796
46.085
46.0906
46.0965
46.1026
46.109
46.1155
46.1223
46.1294
46.1366
46.144
46.1516
46.1594
46.1674
46.1755
46.1838
46.1922
46.2008
46.2095
46.2183
46.2272
46.2363
46.2454
46.2546
46.2639
46.2733
46.2828
46.2923
46.3019
46.3115
46.3211
46.3308
46.3405
46.3502
46.3599
46.3696
46.3793
46.389
46.3987
46.4084
46.418
46.4275
46.4371
46.4466
46.456
46.4653
46.4746
46.4838
46.4929
46.5019
46.5109
46.5197
46.5284
46.537
46.5455
46.5539
46.5621
46.5702
46.5782
46.586
46.5937
46.6012
46.6086
46.6158
46.6228
46.6297
46.6364
46.6429
46.6493
46.6554
46.6614
46.6672
46.6728
46.6781
46.6833
46.6883
46.6931
46.6976
46.702
46.7061
46.7101
46.7138
46.7172
46.7205
46.7235
46.7263
46.7289
46.7312
46.7334
46.7352
46.7369
46.7383
46.7395
46.7404
46.7412
46.7416
46.7419
52.85
52.8485
52.8455
52.8413
52.8357
52.8291
52.8215
52.8129
52.8034
52.7931
52.7818
52.7697
52.7567
52.7428
52.7281
52.7124
52.6959
52.6785
52.6602
52.641
52.6209
52.6
52.5781
52.5554
52.5319
52.5074
52.4821
52.456
52.429
52.4012
52.3726
52.3432
52.3129
52.2819
52.2501
52.2174
52.1841
52.15
52.1151
52.0795
52.0431
52.0061
51.9684
51.9299
51.8908
51.8511
51.8107
51.7696
51.728
51.6857
51.6428
51.5993
51.5553
51.5107
51.4655
51.4199
51.3737
51.327
51.2799
51.2322
51.1841
51.1356
51.0866
51.0373
50.9875
50.9374
50.8869
50.836
50.7848
50.7333
50.6815
50.6294
50.5771
50.5244
50.4716
50.4185
50.3652
50.3117
50.2581
50.2042
50.1503
50.0962
50.042
49.9877
49.9333
49.8788
49.8243
49.7698
49.7153
49.6607
49.6062
49.5516
49.4972
49.4427
49.3884
49.3341
49.28
49.2259
49.172
49.1182
49.0646
49.0112
48.9579
48.9049
48.8521
48.7995
48.7471
48.695
48.6431
48.5916
48.5403
48.4893
48.4387
48.3883
48.3383
48.2887
48.2394
48.1905
48.142
48.0939
48.0462
47.9989
47.952
47.9056
47.8596
47.8141
47.769
47.7244
47.6803
47.6366
47.5935
47.5509
47.5088
47.4672
47.4261
47.3855
47.3455
47.3061
47.2672
47.2288
47.1911
47.1538
47.1172
47.0811
47.0457
47.0108
46.9765
46.9427
46.9096
46.8771
46.8452
46.8139
46.7832
46.7531
46.7236
46.6947
46.6665
46.6388
46.6118
46.5854
46.5596
46.5344
46.5099
46.4859
46.4626
46.4399
46.4178
46.3963
46.3754
46.3551
46.3354
46.3164
46.2979
46.28
46.2628
46.2461
46.23
46.2145
46.1996
46.1853
46.1715
46.1583
46.1457
46.1336
46.1221
46.1111
46.1007
46.0908
46.0815
46.0727
46.0644
46.0566
46.0494
46.0426
46.0364
46.0306
46.0254
46.0206
46.0163
46.0124
46.0091
46.0061
46.0036
46.0016
46
45.9988
45.998
45.9977
45.9977
45.9981
45.9989
46.0001
46.0017
46.0036
46.0059
46.0085
46.0115
46.0148
46.0184
46.0223
46.0265
46.0311
46.0359
46.041
46.0463
46.052
46.0579
46.064
46.0704
46.077
46.0838
46.0908
46.098
46.1055
46.1131
46.1209
46.1289
46.137
46.1453
46.1537
46.1623
46.171
46.1798
46.1888
46.1978
46.207
46.2162
46.2255
46.2349
46.2444
46.2539
46.2634
46.2731
46.2827
46.2924
46.3021
46.3118
46.3215
46.3312
46.341
46.3507
46.3603
46.37
46.3796
46.3892
46.3987
46.4082
46.4176
46.427
46.4363
46.4455
46.4546
46.4636
46.4726
46.4814
46.4901
46.4987
46.5072
46.5156
46.5238
46.5319
46.5399
46.5477
46.5554
46.5629
46.5703
46.5775
46.5846
46.5914
46.5981
46.6047
46.611
46.6172
46.6231
46.6289
46.6345
46.6399
46.6451
46.65
46.6548
46.6594
46.6637
46.6679
46.6718
46.6755
46.679
46.6822
46.6853
46.6881
46.6906
46.693
46.6951
46.697
46.6986
46.7001
46.7012
46.7022
46.7029
46.7034
46.7036
52.7797
52.7783
52.7753
52.7709
52.7653
52.7586
52.7509
52.7422
52.7325
52.722
52.7106
52.6984
52.6853
52.6713
52.6564
52.6407
52.6241
52.6066
52.5883
52.569
52.5489
52.5279
52.5061
52.4833
52.4597
52.4353
52.41
52.3839
52.3569
52.3291
52.3005
52.271
52.2408
52.2097
52.1779
52.1453
52.112
52.0779
52.043
52.0074
51.9711
51.9341
51.8964
51.858
51.8189
51.7791
51.7387
51.6977
51.6561
51.6138
51.571
51.5275
51.4835
51.4389
51.3938
51.3482
51.302
51.2554
51.2082
51.1606
51.1126
51.0641
51.0152
50.9658
50.9161
50.866
50.8155
50.7647
50.7135
50.6621
50.6103
50.5582
50.5059
50.4533
50.4005
50.3474
50.2942
50.2407
50.1871
50.1333
50.0794
50.0253
49.9712
49.9169
49.8626
49.8082
49.7537
49.6992
49.6447
49.5902
49.5357
49.4812
49.4268
49.3724
49.3181
49.2638
49.2097
49.1557
49.1018
49.0481
48.9945
48.9412
48.8879
48.8349
48.7821
48.7296
48.6772
48.6252
48.5734
48.5218
48.4706
48.4197
48.3691
48.3188
48.2688
48.2192
48.17
48.1211
48.0727
48.0246
47.9769
47.9297
47.8828
47.8364
47.7905
47.745
47.6999
47.6554
47.6113
47.5677
47.5246
47.482
47.44
47.3984
47.3574
47.3169
47.2769
47.2375
47.1986
47.1603
47.1226
47.0854
47.0488
47.0128
46.9773
46.9425
46.9082
46.8745
46.8414
46.8089
46.7771
46.7458
46.7151
46.6851
46.6556
46.6268
46.5986
46.571
46.544
46.5176
46.4918
46.4667
46.4421
46.4182
46.3949
46.3722
46.3502
46.3287
46.3079
46.2876
46.268
46.2489
46.2305
46.2127
46.1954
46.1788
46.1627
46.1473
46.1324
46.1181
46.1043
46.0911
46.0785
46.0665
46.055
46.0441
46.0337
46.0238
46.0145
46.0057
45.9975
45.9897
45.9825
45.9758
45.9696
45.9638
45.9586
45.9538
45.9495
45.9457
45.9423
45.9394
45.937
45.9349
45.9333
45.9322
45.9314
45.9311
45.9311
45.9316
45.9324
45.9336
45.9352
45.9371
45.9394
45.9421
45.945
45.9483
45.952
45.9559
45.9602
45.9647
45.9695
45.9746
45.98
45.9856
45.9915
45.9977
46.0041
46.0107
46.0175
46.0245
46.0318
46.0392
46.0468
46.0547
46.0626
46.0708
46.0791
46.0875
46.0961
46.1048
46.1136
46.1226
46.1316
46.1408
46.15
46.1593
46.1687
46.1782
46.1877
46.1973
46.2069
46.2166
46.2262
46.2359
46.2457
46.2554
46.2651
46.2748
46.2845
46.2942
46.3039
46.3135
46.3231
46.3326
46.3421
46.3515
46.3609
46.3702
46.3794
46.3885
46.3975
46.4064
46.4153
46.424
46.4326
46.4411
46.4495
46.4577
46.4658
46.4738
46.4816
46.4893
46.4968
46.5042
46.5114
46.5185
46.5253
46.532
46.5386
46.5449
46.5511
46.557
46.5628
46.5684
46.5738
46.579
46.5839
46.5887
46.5933
46.5976
46.6018
46.6057
46.6094
46.6129
46.6161
46.6191
46.6219
46.6245
46.6269
46.629
46.6309
46.6325
46.6339
46.6351
46.6361
46.6368
46.6373
46.6375
52.7327
52.7313
52.7283
52.7241
52.7186
52.712
52.7043
52.6957
52.6861
52.6756
52.6642
52.652
52.6388
52.6248
52.61
52.5942
52.5776
52.5601
52.5417
52.5224
52.5023
52.4812
52.4594
52.4366
52.413
52.3885
52.3632
52.337
52.31
52.2822
52.2536
52.2241
52.1939
52.1628
52.131
52.0984
52.065
52.0309
51.9961
51.9605
51.9241
51.8871
51.8494
51.811
51.7719
51.7322
51.6918
51.6507
51.6091
51.5668
51.524
51.4805
51.4365
51.3919
51.3468
51.3012
51.255
51.2084
51.1613
51.1137
51.0656
51.0171
50.9682
50.9189
50.8691
50.819
50.7686
50.7177
50.6666
50.6151
50.5633
50.5113
50.459
50.4064
50.3536
50.3005
50.2473
50.1938
50.1402
50.0864
50.0325
49.9785
49.9243
49.8701
49.8157
49.7613
49.7069
49.6524
49.5979
49.5434
49.4889
49.4344
49.38
49.3256
49.2713
49.2171
49.163
49.109
49.0551
49.0014
48.9478
48.8945
48.8413
48.7883
48.7355
48.6829
48.6306
48.5785
48.5267
48.4752
48.424
48.3731
48.3225
48.2722
48.2223
48.1727
48.1235
48.0746
48.0262
47.9781
47.9305
47.8832
47.8364
47.79
47.7441
47.6986
47.6536
47.609
47.565
47.5214
47.4783
47.4357
47.3937
47.3521
47.3111
47.2706
47.2307
47.1913
47.1525
47.1142
47.0764
47.0393
47.0027
46.9667
46.9313
46.8964
46.8622
46.8285
46.7955
46.763
46.7311
46.6999
46.6692
46.6392
46.6098
46.581
46.5527
46.5252
46.4982
46.4718
46.4461
46.421
46.3965
46.3726
46.3493
46.3266
46.3046
46.2831
46.2623
46.2421
46.2225
46.2034
46.185
46.1672
46.15
46.1334
46.1173
46.1019
46.087
46.0727
46.059
46.0459
46.0333
46.0213
46.0098
45.9989
45.9885
45.9787
45.9694
45.9606
45.9524
45.9447
45.9374
45.9307
45.9245
45.9188
45.9136
45.9089
45.9046
45.9008
45.8974
45.8946
45.8921
45.8901
45.8885
45.8874
45.8866
45.8863
45.8864
45.8868
45.8877
45.8889
45.8905
45.8925
45.8948
45.8974
45.9004
45.9038
45.9074
45.9114
45.9156
45.9202
45.925
45.9301
45.9355
45.9412
45.9471
45.9532
45.9596
45.9663
45.9731
45.9802
45.9874
45.9949
46.0025
46.0103
46.0183
46.0265
46.0348
46.0432
46.0518
46.0606
46.0694
46.0784
46.0874
46.0966
46.1058
46.1152
46.1246
46.134
46.1436
46.1532
46.1628
46.1724
46.1821
46.1919
46.2016
46.2113
46.221
46.2308
46.2405
46.2502
46.2598
46.2695
46.2791
46.2886
46.2981
46.3075
46.3169
46.3262
46.3354
46.3445
46.3535
46.3625
46.3713
46.3801
46.3887
46.3972
46.4055
46.4138
46.4219
46.4299
46.4377
46.4454
46.4529
46.4603
46.4675
46.4746
46.4814
46.4881
46.4947
46.501
46.5072
46.5132
46.5189
46.5245
46.5299
46.5351
46.5401
46.5449
46.5494
46.5538
46.5579
46.5618
46.5655
46.569
46.5723
46.5753
46.5781
46.5807
46.583
46.5852
46.587
46.5887
46.5901
46.5913
46.5922
46.5929
46.5934
46.5937
52.6661
52.6647
52.6618
52.6576
52.652
52.6454
52.6377
52.629
52.6194
52.6088
52.5974
52.5851
52.5719
52.5578
52.5428
52.527
52.5103
52.4928
52.4743
52.455
52.4348
52.4138
52.3918
52.3691
52.3454
52.3209
52.2956
52.2694
52.2424
52.2146
52.1859
52.1565
52.1262
52.0952
52.0633
52.0307
51.9974
51.9633
51.9284
51.8928
51.8565
51.8195
51.7817
51.7433
51.7043
51.6645
51.6242
51.5831
51.5415
51.4992
51.4564
51.413
51.369
51.3244
51.2793
51.2337
51.1876
51.1409
51.0938
51.0462
50.9982
50.9497
50.9008
50.8515
50.8018
50.7517
50.7012
50.6504
50.5993
50.5478
50.4961
50.4441
50.3918
50.3392
50.2864
50.2334
50.1801
50.1267
50.0731
50.0194
49.9655
49.9115
49.8573
49.8031
49.7488
49.6944
49.64
49.5855
49.531
49.4765
49.4221
49.3676
49.3132
49.2589
49.2046
49.1504
49.0963
49.0424
48.9885
48.9348
48.8813
48.8279
48.7748
48.7218
48.669
48.6165
48.5642
48.5122
48.4604
48.4089
48.3577
48.3068
48.2563
48.206
48.1561
48.1066
48.0574
48.0086
47.9601
47.9121
47.8645
47.8172
47.7705
47.7241
47.6782
47.6328
47.5878
47.5432
47.4992
47.4557
47.4126
47.3701
47.328
47.2865
47.2456
47.2051
47.1652
47.1258
47.087
47.0487
47.0111
46.9739
46.9374
46.9014
46.866
46.8312
46.797
46.7633
46.7303
46.6979
46.666
46.6348
46.6042
46.5742
46.5448
46.516
46.4878
46.4603
46.4333
46.407
46.3813
46.3562
46.3317
46.3079
46.2846
46.262
46.24
46.2186
46.1978
46.1776
46.158
46.139
46.1206
46.1028
46.0856
46.069
46.053
46.0376
46.0228
46.0085
45.9948
45.9817
45.9691
45.9571
45.9457
45.9348
45.9245
45.9147
45.9054
45.8967
45.8884
45.8807
45.8736
45.8669
45.8607
45.855
45.8498
45.8451
45.8409
45.8371
45.8338
45.8309
45.8285
45.8265
45.8249
45.8238
45.8231
45.8228
45.8229
45.8234
45.8242
45.8255
45.8271
45.8291
45.8314
45.8341
45.8371
45.8404
45.8441
45.8481
45.8523
45.8569
45.8618
45.8669
45.8723
45.878
45.8839
45.8901
45.8965
45.9031
45.91
45.9171
45.9243
45.9318
45.9395
45.9473
45.9553
45.9635
45.9718
45.9802
45.9889
45.9976
46.0064
46.0154
46.0245
46.0337
46.0429
46.0523
46.0617
46.0712
46.0807
46.0903
46.0999
46.1096
46.1193
46.129
46.1388
46.1485
46.1582
46.168
46.1777
46.1874
46.1971
46.2067
46.2163
46.2258
46.2353
46.2448
46.2541
46.2634
46.2727
46.2818
46.2908
46.2998
46.3086
46.3173
46.326
46.3345
46.3428
46.3511
46.3592
46.3672
46.375
46.3827
46.3903
46.3976
46.4048
46.4119
46.4188
46.4255
46.432
46.4384
46.4445
46.4505
46.4563
46.4619
46.4673
46.4725
46.4774
46.4822
46.4868
46.4911
46.4953
46.4992
46.5029
46.5064
46.5096
46.5127
46.5155
46.5181
46.5204
46.5225
46.5244
46.5261
46.5275
46.5287
46.5296
46.5303
46.5308
46.531
52.6151
52.6138
52.6109
52.6068
52.6013
52.5948
52.5872
52.5785
52.569
52.5585
52.547
52.5347
52.5215
52.5074
52.4925
52.4766
52.4599
52.4423
52.4238
52.4045
52.3843
52.3632
52.3412
52.3184
52.2948
52.2702
52.2449
52.2187
52.1917
52.1638
52.1351
52.1057
52.0754
52.0443
52.0125
51.9798
51.9465
51.9123
51.8775
51.8419
51.8055
51.7685
51.7308
51.6924
51.6533
51.6135
51.5731
51.5321
51.4905
51.4482
51.4054
51.3619
51.3179
51.2734
51.2283
51.1826
51.1365
51.0898
51.0427
50.9951
50.9471
50.8986
50.8497
50.8004
50.7507
50.7006
50.6501
50.5993
50.5482
50.4967
50.445
50.3929
50.3406
50.2881
50.2353
50.1823
50.129
50.0756
50.022
49.9683
49.9144
49.8603
49.8062
49.752
49.6977
49.6433
49.5889
49.5344
49.4799
49.4254
49.371
49.3165
49.2621
49.2078
49.1535
49.0993
49.0452
48.9913
48.9374
48.8838
48.8302
48.7769
48.7237
48.6707
48.618
48.5655
48.5132
48.4612
48.4094
48.3579
48.3067
48.2559
48.2053
48.155
48.1052
48.0556
48.0064
47.9576
47.9092
47.8612
47.8136
47.7664
47.7196
47.6732
47.6274
47.5819
47.5369
47.4924
47.4484
47.4049
47.3619
47.3193
47.2773
47.2358
47.1948
47.1544
47.1145
47.0752
47.0364
46.9981
46.9604
46.9233
46.8868
46.8508
46.8155
46.7807
46.7465
46.7129
46.6799
46.6474
46.6156
46.5844
46.5538
46.5238
46.4945
46.4657
46.4376
46.41
46.3831
46.3568
46.3311
46.306
46.2816
46.2577
46.2345
46.2119
46.1899
46.1685
46.1477
46.1276
46.108
46.089
46.0707
46.0529
46.0358
46.0192
46.0032
45.9878
45.973
45.9587
45.9451
45.932
45.9195
45.9075
45.8961
45.8852
45.8749
45.8651
45.8559
45.8472
45.839
45.8313
45.8241
45.8175
45.8113
45.8057
45.8005
45.7958
45.7916
45.7878
45.7845
45.7817
45.7793
45.7773
45.7758
45.7747
45.774
45.7737
45.7738
45.7743
45.7752
45.7765
45.7781
45.7801
45.7825
45.7852
45.7882
45.7916
45.7953
45.7993
45.8036
45.8082
45.813
45.8182
45.8236
45.8293
45.8353
45.8415
45.8479
45.8545
45.8614
45.8685
45.8758
45.8833
45.891
45.8988
45.9068
45.915
45.9234
45.9318
45.9405
45.9492
45.9581
45.9671
45.9762
45.9853
45.9946
46.004
46.0134
46.0229
46.0325
46.0421
46.0517
46.0614
46.0711
46.0809
46.0906
46.1004
46.1101
46.1199
46.1296
46.1393
46.149
46.1586
46.1682
46.1778
46.1873
46.1968
46.2061
46.2154
46.2247
46.2338
46.2429
46.2518
46.2607
46.2694
46.278
46.2865
46.2949
46.3032
46.3113
46.3193
46.3271
46.3348
46.3424
46.3498
46.357
46.364
46.3709
46.3776
46.3842
46.3905
46.3967
46.4027
46.4085
46.4141
46.4194
46.4246
46.4296
46.4344
46.439
46.4433
46.4475
46.4514
46.4551
46.4586
46.4619
46.4649
46.4677
46.4703
46.4726
46.4748
46.4766
46.4783
46.4797
46.4809
46.4818
46.4826
46.483
46.4833
52.5511
52.5497
52.5469
52.5428
52.5374
52.5308
52.5232
52.5146
52.505
52.4945
52.483
52.4707
52.4574
52.4433
52.4283
52.4124
52.3956
52.378
52.3595
52.3401
52.3198
52.2987
52.2767
52.2539
52.2302
52.2057
52.1803
52.154
52.127
52.0991
52.0704
52.0409
52.0107
51.9796
51.9477
51.9151
51.8817
51.8476
51.8127
51.7771
51.7407
51.7037
51.666
51.6275
51.5885
51.5487
51.5083
51.4673
51.4256
51.3834
51.3405
51.2971
51.2531
51.2085
51.1634
51.1178
51.0717
51.025
50.9779
50.9303
50.8823
50.8338
50.7849
50.7356
50.6859
50.6358
50.5853
50.5345
50.4834
50.432
50.3802
50.3282
50.2759
50.2233
50.1705
50.1175
50.0643
50.0109
49.9573
49.9036
49.8497
49.7957
49.7415
49.6873
49.633
49.5786
49.5242
49.4698
49.4153
49.3608
49.3064
49.2519
49.1976
49.1432
49.089
49.0348
48.9807
48.9268
48.873
48.8193
48.7658
48.7124
48.6593
48.6063
48.5536
48.5011
48.4488
48.3968
48.3451
48.2936
48.2424
48.1916
48.141
48.0908
48.0409
47.9914
47.9422
47.8934
47.845
47.797
47.7494
47.7023
47.6555
47.6092
47.5633
47.5179
47.4729
47.4285
47.3845
47.341
47.2979
47.2554
47.2134
47.172
47.131
47.0906
47.0507
47.0114
46.9726
46.9344
46.8968
46.8597
46.8232
46.7872
46.7519
46.7171
46.6829
46.6494
46.6164
46.584
46.5522
46.521
46.4905
46.4605
46.4312
46.4024
46.3743
46.3468
46.3199
46.2936
46.268
46.2429
46.2185
46.1947
46.1715
46.1489
46.1269
46.1056
46.0848