/*--------------------------------*- C++ -*----------------------------------*\
| =========                 |                                                 |
| \\      /  F ield         | OpenFOAM: The Open Source CFD Toolbox           |
|  \\    /   O peration     | Version:  2212                                  |
|   \\  /    A nd           | Website:  www.openfoam.com                      |
|    \\/     M anipulation  |                                                 |
\*---------------------------------------------------------------------------*/
FoamFile
{
    version     2.0;
    format      ascii;
    arch        "LSB;label=32;scalar=64";
    class       surfaceScalarField;
    location    "1020";
    object      phi;
}
// * * * * * * * * * * * * * * * * * * * * * * * * * * * * * * * * * * * * * //

dimensions      [1 0 -1 0 0 0 0];

oriented        oriented;

internalField   nonuniform List<scalar> 
408640
(
-698.762
699.902
-1381.6
682.983
-2031.42
649.978
-2637.22
605.953
-3194.42
557.363
-3704.16
509.898
-4171.97
467.975
-4605.93
434.132
-5014.93
409.167
-5407.27
392.508
-5789.86
382.766
-6167.93
378.233
-6545.01
377.252
-6923.28
378.434
-7303.84
380.735
-7687.12
383.45
-8073.1
386.144
-8461.51
388.584
-8852.01
390.667
-9244.21
392.368
-9637.74
393.7
-10032.3
394.698
-10427.5
395.397
-10823.2
395.836
-11219
396.044
-11614.9
396.05
-12010.6
395.876
-12406
395.542
-12800.9
395.063
-13195.2
394.452
-13588.7
393.721
-13981.5
392.88
-14373.2
391.936
-14764
390.895
-15153.6
389.765
-15541.9
388.551
-15929
387.256
-16314.8
385.885
-16699
384.441
-17081.8
382.927
-17463
381.347
-17842.5
379.702
-18220.3
377.994
-18596.4
376.226
-18970.6
374.4
-19343
372.516
-19713.4
370.577
-20081.8
368.584
-20448.2
366.538
-20812.5
364.44
-21174.6
362.292
-21534.5
360.094
-21892.2
357.848
-22247.6
355.554
-22600.7
353.213
-22951.3
350.826
-23299.6
348.393
-23645.3
345.916
-23988.6
343.396
-24329.2
340.832
-24667.3
338.226
-25002.7
335.578
-25335.5
332.889
-25665.5
330.16
-25992.7
327.39
-26317.1
324.582
-26638.7
321.735
-26957.4
318.849
-27273.2
315.926
-27586
312.967
-27895.8
309.97
-28202.6
306.938
-28506.3
303.871
-28806.9
300.769
-29104.4
297.633
-29398.7
294.463
-29689.8
291.261
-29977.7
288.026
-30262.3
284.758
-30543.6
281.46
-30821.6
278.131
-31096.2
274.771
-31367.5
271.382
-31635.3
267.963
-31899.7
264.516
-32160.6
261.041
-32418
257.539
-32671.8
254.009
-32922.1
250.453
-33168.9
246.871
-33412
243.265
-33651.5
239.633
-33887.3
235.977
-34119.5
232.298
-34347.9
228.596
-34572.7
224.871
-34793.7
221.125
-35010.9
217.357
-35224.3
213.569
-35434
209.76
-35639.8
205.932
-35841.7
202.086
-36039.8
198.22
-36234
194.337
-36424.3
190.437
-36610.7
186.521
-36793.2
182.588
-36971.7
178.64
-37146.3
174.677
-37316.8
170.7
-37483.4
166.709
-37646
162.706
-37804.6
158.689
-37959.1
154.661
-38109.7
150.622
-38256.1
146.572
-38398.5
142.512
-38536.8
138.442
-38671.1
134.364
-38801.3
130.277
-38927.3
126.182
-39049.3
122.08
-39167.2
117.972
-39280.9
113.858
-39390.6
109.738
-39496.1
105.613
-39597.5
101.484
-39694.7
97.352
-39787.9
93.2164
-39876.8
89.0782
-39961.7
84.9382
-40042.4
80.7967
-40119
76.6544
-40191.4
72.5118
-40259.7
68.3696
-40323.8
64.2281
-40383.8
60.0881
-40439.7
55.95
-40491.4
51.8145
-40539
47.6819
-40582.5
43.553
-40621.9
39.4281
-40657.1
35.3079
-40688.3
31.1929
-40715.3
27.0835
-40738.2
22.9803
-40757
18.8839
-40771.7
14.7946
-40782.4
10.7131
-40789
6.63987
-40791.5
2.57531
-40790
-1.48005
-40784.4
-5.52573
-40774.8
-9.56124
-40761.2
-13.5861
-40743.5
-17.5999
-40721.9
-21.6021
-40696.3
-25.5923
-40666.7
-29.57
-40633.1
-33.5349
-40595.6
-37.4863
-40554.1
-41.4241
-40508.7
-45.3476
-40459.5
-49.2564
-40406.3
-53.1503
-40349.2
-57.0287
-40288.3
-60.8913
-40223.6
-64.7377
-40155
-68.5674
-40082.6
-72.3802
-40006.4
-76.1755
-39926.5
-79.9532
-39842.8
-83.7127
-39755.3
-87.4538
-39664.2
-91.1761
-39569.3
-94.8793
-39470.7
-98.563
-39368.5
-102.227
-39262.7
-105.871
-39153.2
-109.494
-39040.1
-113.097
-38923.5
-116.678
-38803.3
-120.239
-38679.5
-123.777
-38552.3
-127.294
-38421.5
-130.789
-38287.3
-134.261
-38149.6
-137.711
-38008.5
-141.138
-37864
-144.541
-37716.2
-147.921
-37564.9
-151.278
-37410.4
-154.61
-37252.5
-157.919
-37091.4
-161.203
-36927
-164.463
-36759.4
-167.699
-36588.5
-170.909
-36414.5
-174.094
-36237.3
-177.254
-36057
-180.389
-35873.6
-183.498
-35687.1
-186.582
-35497.6
-189.639
-35305
-192.671
-35109.4
-195.676
-34910.9
-198.655
-34709.4
-201.608
-34504.9
-204.535
-34297.6
-207.434
-34087.4
-210.307
-33874.4
-213.153
-33658.5
-215.972
-33439.9
-218.765
-33218.5
-221.53
-32994.4
-224.267
-32767.5
-226.978
-32538
-229.661
-32305.8
-232.317
-32071
-234.945
-31833.6
-237.546
-31593.7
-240.12
-31351.2
-242.665
-31106.1
-245.183
-30858.6
-247.674
-30608.6
-250.136
-30356.2
-252.571
-30101.4
-254.978
-29844.2
-257.358
-29584.7
-259.709
-29322.9
-262.033
-29058.7
-264.329
-28792.3
-266.597
-28523.7
-268.837
-28252.8
-271.05
-27979.8
-273.234
-27704.6
-275.391
-27427.3
-277.52
-27147.8
-279.621
-26866.4
-281.695
-26582.8
-283.741
-26297.3
-285.759
-26009.8
-287.75
-25720.3
-289.713
-25428.8
-291.648
-25135.5
-293.556
-24840.3
-295.436
-24543.3
-297.289
-24244.4
-299.114
-23943.7
-300.912
-23641.3
-302.683
-23337.1
-304.426
-23031.2
-306.142
-22723.6
-307.831
-22414.4
-309.493
-22103.5
-311.127
-21791
-312.735
-21477
-314.316
-21161.4
-315.87
-20844.3
-317.397
-20525.6
-318.897
-20205.5
-320.371
-19884
-321.818
-19561
-323.238
-19236.7
-324.632
-18911
-325.999
-18583.9
-327.34
-18255.5
-328.655
-17925.9
-329.944
-17595
-331.206
-17262.8
-332.442
-16929.5
-333.652
-16594.9
-334.837
-16259.3
-335.995
-15922.4
-337.127
-15584.5
-338.234
-15245.5
-339.315
-14905.4
-340.371
-14564.4
-341.4
-14222.3
-342.405
-13879.2
-343.384
-13535.2
-344.337
-13190.2
-345.266
-12844.4
-346.169
-12497.7
-347.047
-12150.1
-347.9
-11801.7
-348.728
-11452.5
-349.531
-11102.5
-350.31
-10751.8
-351.063
-10400.3
-351.792
-10048.2
-352.496
-9695.34
-353.176
-9341.85
-353.832
-8987.73
-354.463
-8633
-355.07
-8277.69
-355.652
-7921.83
-356.211
-7565.43
-356.745
-7208.52
-357.256
-6851.12
-357.742
-6493.27
-358.205
-6134.97
-358.644
-5776.27
-359.059
-5417.17
-359.451
-5057.7
-359.818
-4697.89
-360.162
-4337.76
-360.483
-3977.34
-360.779
-3616.64
-361.052
-3255.7
-361.3
-2894.53
-361.525
-2533.16
-361.725
-2171.62
-361.902
-1809.92
-362.054
-1448.1
-362.182
-1086.17
-362.286
-724.161
-362.366
-362.097
-362.423
-362.455
-690.098
1390.15
-1364.41
1357.44
-2007.38
1293.1
-2608.54
1207.27
-3163.29
1112.27
-3672.5
1019.28
-4141.29
936.922
-4577.22
870.234
-4988.72
820.838
-5383.73
787.687
-5768.91
768.108
-6149.29
758.787
-6528.36
756.492
-6908.26
758.504
-7290.13
762.773
-7674.42
767.905
-8061.14
773.04
-8450.1
777.712
-8840.98
781.708
-9233.41
784.974
-9627.08
787.531
-10021.7
789.441
-10416.9
790.773
-10812.5
791.595
-11208.2
791.968
-11603.9
791.945
-11999.5
791.569
-12394.6
790.877
-12789.3
789.899
-13183.3
788.662
-13576.6
787.187
-13969.1
785.492
-14360.6
783.594
-14751
781.506
-15140.3
779.24
-15528.4
776.805
-15915.2
774.211
-16300.6
771.465
-16684.6
768.574
-17067
765.544
-17447.9
762.38
-17827.1
759.088
-18204.6
755.672
-18580.4
752.135
-18954.3
748.481
-19326.3
744.713
-19696.4
740.835
-20064.5
736.849
-20430.6
732.757
-20794.6
728.562
-21156.4
724.266
-21516
719.87
-21873.4
715.378
-22228.4
710.791
-22581.2
706.11
-22931.5
701.336
-23279.4
696.473
-23624.9
691.521
-23967.8
686.481
-24308.2
681.355
-24645.9
676.144
-24981
670.85
-25313.5
665.473
-25643.2
660.016
-25970.1
654.479
-26294.2
648.864
-26615.5
643.171
-26933.9
637.402
-27249.4
631.559
-27561.9
625.641
-27871.4
619.651
-28177.9
613.589
-28481.4
607.456
-28781.7
601.255
-29078.9
594.985
-29372.9
588.648
-29663.8
582.245
-29951.4
575.777
-30235.7
569.245
-30516.8
562.65
-30794.5
555.994
-31068.8
549.277
-31339.8
542.501
-31607.4
535.667
-31871.5
528.775
-32132.1
521.828
-32389.3
514.825
-32642.9
507.769
-32893
500.66
-33139.4
493.499
-33382.3
486.288
-33621.6
479.028
-33857.2
471.719
-34089.1
464.364
-34317.3
456.962
-34541.9
449.516
-34762.6
442.026
-34979.6
434.494
-35192.8
426.92
-35402.3
419.306
-35607.9
411.654
-35809.6
403.963
-36007.5
396.236
-36201.5
388.473
-36391.6
380.676
-36577.8
372.846
-36760.1
364.984
-36938.4
357.091
-37112.8
349.169
-37283.2
341.218
-37449.6
333.24
-37612
325.236
-37770.4
317.207
-37924.8
309.154
-38075.1
301.078
-38221.4
292.982
-38363.7
284.865
-38501.8
276.729
-38635.9
268.576
-38766
260.405
-38891.9
252.22
-39013.7
244.02
-39131.5
235.806
-39245.1
227.581
-39354.6
219.345
-39460
211.1
-39561.2
202.846
-39658.4
194.584
-39751.4
186.317
-39840.3
178.044
-39925
169.768
-40005.6
161.488
-40082.1
153.207
-40154.4
144.926
-40222.6
136.645
-40286.6
128.366
-40346.6
120.09
-40402.4
111.817
-40454
103.55
-40501.5
95.2885
-40545
87.0344
-40584.2
78.7884
-40619.4
70.5517
-40650.5
62.3254
-40677.4
54.1105
-40700.3
45.9079
-40719.1
37.7188
-40733.8
29.5442
-40744.4
21.3849
-40750.9
13.2422
-40753.4
5.11687
-40751.9
-2.99004
-40746.3
-11.0776
-40736.6
-19.1448
-40723
-27.1907
-40705.3
-35.2145
-40683.7
-43.2151
-40658
-51.1917
-40628.4
-59.1433
-40594.9
-67.0692
-40557.4
-74.9683
-40515.9
-82.8399
-40470.6
-90.6831
-40421.3
-98.4971
-40368.1
-106.281
-40311.1
-114.034
-40250.2
-121.755
-40185.5
-129.444
-40117
-137.1
-40044.6
-144.722
-39968.5
-152.309
-39888.6
-159.86
-39804.9
-167.376
-39717.5
-174.854
-39626.4
-182.295
-39531.6
-189.698
-39433.1
-197.061
-39331
-204.385
-39225.2
-211.669
-39115.8
-218.912
-39002.8
-226.114
-38886.2
-233.274
-38766.1
-240.39
-38642.4
-247.464
-38515.3
-254.494
-38384.6
-261.48
-38250.5
-268.421
-38112.9
-275.317
-37972
-282.166
-37827.6
-288.97
-37679.8
-295.727
-37528.7
-302.436
-37374.3
-309.098
-37216.6
-315.712
-37055.6
-322.277
-36891.3
-328.793
-36723.8
-335.26
-36553.1
-341.677
-36379.2
-348.045
-36202.2
-354.361
-36022.1
-360.627
-35838.8
-366.842
-35652.5
-373.006
-35463.1
-379.118
-35270.7
-385.178
-35075.3
-391.185
-34876.9
-397.14
-34675.5
-403.043
-34471.3
-408.892
-34264.2
-414.688
-34054.1
-420.431
-33841.3
-426.12
-33625.6
-431.755
-33407.2
-437.336
-33186
-442.863
-32962
-448.336
-32735.4
-453.754
-32506.1
-459.117
-32274.1
-464.426
-32039.5
-469.679
-31802.3
-474.878
-31562.6
-480.022
-31320.3
-485.11
-31075.5
-490.143
-30828.2
-495.121
-30578.5
-500.043
-30326.3
-504.91
-30071.7
-509.722
-29814.8
-514.478
-29555.5
-519.178
-29293.9
-523.823
-29030
-528.412
-28763.8
-532.945
-28495.4
-537.423
-28224.8
-541.846
-27952
-546.212
-27677.1
-550.523
-27400.1
-554.779
-27120.9
-558.979
-26839.7
-563.124
-26556.4
-567.213
-26271.1
-571.247
-25983.9
-575.226
-25694.7
-579.149
-25403.5
-583.017
-25110.5
-586.831
-24815.6
-590.589
-24518.8
-594.292
-24220.2
-597.941
-23919.8
-601.534
-23617.7
-605.073
-23313.8
-608.558
-23008.2
-611.988
-22700.9
-615.364
-22392
-618.685
-22081.4
-621.953
-21769.2
-625.166
-21455.5
-628.326
-21140.2
-631.432
-20823.4
-634.484
-20505
-637.483
-20185.3
-640.428
-19864
-643.32
-19541.4
-646.159
-19217.4
-648.945
-18892
-651.678
-18565.2
-654.358
-18237.2
-656.986
-17907.9
-659.562
-17577.3
-662.085
-17245.5
-664.555
-16912.4
-666.974
-16578.2
-669.341
-16242.9
-671.656
-15906.4
-673.92
-15568.8
-676.132
-15230.1
-678.292
-14890.4
-680.402
-14549.7
-682.46
-14207.9
-684.468
-13865.2
-686.424
-13521.5
-688.331
-13176.9
-690.186
-12831.4
-691.991
-12485.1
-693.746
-12137.8
-695.451
-11789.8
-697.106
-11440.9
-698.711
-11091.3
-700.267
-10740.9
-701.773
-10389.8
-703.23
-10038
-704.638
-9685.53
-705.997
-9332.4
-707.307
-8978.63
-708.568
-8624.26
-709.781
-8269.31
-710.945
-7913.81
-712.062
-7557.77
-713.13
-7201.22
-714.15
-6844.19
-715.123
-6486.69
-716.048
-6128.76
-716.925
-5770.42
-717.755
-5411.68
-718.537
-5052.58
-719.272
-4693.13
-719.96
-4333.37
-720.6
-3973.31
-721.192
-3612.98
-721.737
-3252.4
-722.234
-2891.6
-722.683
-2530.6
-723.084
-2169.42
-723.436
-1808.09
-723.741
-1446.63
-723.997
-1085.07
-724.205
-723.431
-724.365
-361.733
-724.478
-724.546
-676.842
2067.14
-1338.9
2019.65
-1971.95
1926.3
-2566.28
1801.75
-3117.45
1663.6
-3626.02
1528.01
-4096.47
1407.53
-4535.63
1309.57
-4951.22
1236.6
-5350.59
1187.23
-5739.98
1157.66
-6124.17
1143.15
-6506.53
1139.02
-6889.16
1141.3
-7273.23
1147.02
-7659.26
1154.11
-8047.35
1161.29
-8437.35
1167.88
-8829.01
1173.53
-9222.02
1178.16
-9616.11
1181.78
-10011
1184.47
-10406.4
1186.34
-10802.1
1187.46
-11197.9
1187.93
-11593.6
1187.83
-11989
1187.2
-12384.1
1186.12
-12778.7
1184.61
-13172.6
1182.72
-13565.7
1180.48
-13957.9
1177.92
-14349.2
1175.05
-14739.5
1171.9
-15128.5
1168.49
-15516.4
1164.82
-15902.9
1160.92
-16288.1
1156.79
-16671.8
1152.45
-17054
1147.9
-17434.6
1143.14
-17813.5
1138.2
-18190.8
1133.07
-18566.2
1127.76
-18939.9
1122.28
-19311.6
1116.63
-19681.4
1110.81
-20049.3
1104.83
-20415
1098.69
-20778.7
1092.4
-21140.2
1085.95
-21499.6
1079.36
-21856.6
1072.62
-22211.4
1065.74
-22563.9
1058.72
-22913.9
1051.56
-23261.6
1044.27
-23606.7
1036.84
-23949.4
1029.28
-24289.5
1021.59
-24626.9
1013.78
-24961.8
1005.84
-25293.9
997.777
-25623.3
989.593
-25950
981.29
-26273.8
972.869
-26594.8
964.333
-26913
955.682
-27228.2
946.919
-27540.4
938.045
-27849.7
929.062
-28155.9
919.972
-28459.1
910.776
-28759.1
901.477
-29056.1
892.075
-29349.9
882.572
-29640.4
872.971
-29927.8
863.272
-30211.9
853.477
-30492.7
843.589
-30770.1
833.608
-31044.2
823.537
-31315
813.376
-31582.3
803.128
-31846.2
792.794
-32106.6
782.377
-32363.5
771.877
-32616.9
761.296
-32866.7
750.636
-33113
739.899
-33355.6
729.086
-33594.6
718.2
-33830
707.241
-34061.7
696.211
-34289.8
685.113
-34514.1
673.948
-34734.6
662.717
-34951.4
651.423
-35164.4
640.067
-35373.6
628.651
-35579
617.176
-35780.6
605.644
-35978.3
594.058
-36172.1
582.418
-36362
570.727
-36548
558.987
-36730.1
547.198
-36908.3
535.364
-37082.5
523.484
-37252.7
511.563
-37418.9
499.6
-37581.2
487.599
-37739.4
475.56
-37893.6
463.485
-38043.8
451.377
-38190
439.237
-38332
427.067
-38470.1
414.868
-38604
402.642
-38733.9
390.392
-38859.7
378.118
-38981.4
365.823
-39099
353.508
-39212.5
341.175
-39321.9
328.826
-39427.1
316.463
-39528.3
304.087
-39625.3
291.7
-39718.2
279.304
-39807
266.9
-39891.6
254.491
-39972.1
242.077
-40048.5
229.661
-40120.7
217.244
-40188.8
204.828
-40252.8
192.414
-40312.6
180.005
-40368.3
167.601
-40419.9
155.206
-40467.3
142.819
-40510.7
130.443
-40549.9
118.079
-40585
105.73
-40616
93.3954
-40642.9
81.0783
-40665.7
68.7798
-40684.4
56.5015
-40699.1
44.2449
-40709.6
32.0114
-40716.2
19.8027
-40718.6
7.62007
-40717
-4.53492
-40711.4
-16.6608
-40701.7
-28.7563
-40688
-40.8198
-40670.4
-52.85
-40648.7
-64.8455
-40623
-76.805
-40593.4
-88.7271
-40559.9
-100.61
-40522.3
-112.454
-40480.9
-124.256
-40435.5
-136.015
-40386.3
-147.731
-40333.1
-159.401
-40276.1
-171.025
-40215.3
-182.602
-40150.6
-194.13
-40082.1
-205.608
-40009.7
-217.035
-39933.6
-228.411
-39853.8
-239.732
-39770.1
-251
-39682.8
-262.212
-39591.7
-273.368
-39496.9
-284.467
-39398.5
-295.507
-39296.4
-306.488
-39190.7
-317.409
-39081.4
-328.268
-38968.4
-339.065
-38851.9
-349.799
-38731.9
-360.469
-38608.3
-371.075
-38481.2
-381.615
-38350.7
-392.088
-38216.6
-402.494
-38079.1
-412.833
-37938.3
-423.102
-37794
-433.302
-37646.3
-443.432
-37495.3
-453.492
-37341
-463.479
-37183.4
-473.395
-37022.5
-483.237
-36858.3
-493.007
-36691
-502.702
-36520.4
-512.323
-36346.6
-521.869
-36169.7
-531.339
-35989.7
-540.733
-35806.6
-550.051
-35620.4
-559.291
-35431.2
-568.454
-35238.9
-577.539
-35043.6
-586.546
-34845.4
-595.474
-34644.2
-604.322
-34440.1
-613.092
-34233.2
-621.781
-34023.3
-630.391
-33810.6
-638.919
-33595.1
-647.368
-33376.9
-655.735
-33155.8
-664.021
-32932.1
-672.225
-32705.6
-680.348
-32476.5
-688.388
-32244.7
-696.347
-32010.3
-704.223
-31773.3
-712.017
-31533.8
-719.728
-31291.7
-727.356
-31047.1
-734.902
-30800
-742.364
-30550.4
-749.743
-30298.5
-757.04
-30044.1
-764.253
-29787.4
-771.383
-29528.3
-778.429
-29266.9
-785.392
-29003.3
-792.272
-28737.3
-799.068
-28469.2
-805.781
-28198.8
-812.411
-27926.2
-818.957
-27651.5
-825.42
-27374.7
-831.799
-27095.8
-838.096
-26814.8
-844.309
-26531.8
-850.44
-26246.8
-856.487
-25959.8
-862.451
-25670.8
-868.333
-25379.9
-874.132
-25087.1
-879.848
-24792.5
-885.482
-24496
-891.034
-24197.6
-896.503
-23897.5
-901.89
-23595.7
-907.196
-23292
-912.419
-22986.7
-917.561
-22679.7
-922.622
-22371
-927.601
-22060.8
-932.499
-21748.9
-937.317
-21435.4
-942.053
-21120.4
-946.709
-20803.9
-951.284
-20485.8
-955.78
-20166.3
-960.195
-19845.4
-964.53
-19523.1
-968.786
-19199.3
-972.962
-18874.2
-977.059
-18547.8
-981.078
-18220
-985.017
-17891
-988.877
-17560.7
-992.659
-17229.2
-996.363
-16896.5
-999.989
-16562.6
-1003.54
-16227.6
-1007.01
-15891.4
-1010.4
-15554.1
-1013.72
-15215.8
-1016.96
-14876.4
-1020.12
-14535.9
-1023.2
-14194.5
-1026.21
-13852.1
-1029.15
-13508.7
-1032
-13164.5
-1034.78
-12819.3
-1037.49
-12473.2
-1040.12
-12126.3
-1042.68
-11778.6
-1045.16
-11430.1
-1047.56
-11080.8
-1049.9
-10730.7
-1052.15
-10380
-1054.34
-10028.5
-1056.45
-9676.34
-1058.49
-9323.54
-1060.45
-8970.11
-1062.34
-8616.08
-1064.16
-8261.46
-1065.9
-7906.29
-1067.58
-7550.59
-1069.18
-7194.38
-1070.71
-6837.68
-1072.17
-6480.53
-1073.55
-6122.94
-1074.87
-5764.93
-1076.11
-5406.54
-1077.28
-5047.78
-1078.39
-4688.67
-1079.42
-4329.25
-1080.38
-3969.53
-1081.26
-3609.55
-1082.08
-3249.31
-1082.82
-2888.85
-1083.5
-2528.19
-1084.1
-2167.36
-1084.63
-1806.37
-1085.08
-1445.26
-1085.47
-1084.04
-1085.78
-722.741
-1086.02
-361.386
-1086.19
-1086.29
-658.914
2726.2
-1304.35
2665.23
-1923.94
2546.04
-2509.05
2387.02
-3055.46
2210.17
-3563.33
2036.04
-4036.27
1880.64
-4480.11
1753.57
-4901.55
1658.21
-5307.15
1592.99
-5702.54
1553.23
-6092.18
1532.96
-6479.23
1526.24
-6865.79
1528.03
-7253.06
1534.46
-7641.65
1542.87
-8031.76
1551.57
-8423.34
1559.63
-8816.23
1566.59
-9210.21
1572.3
-9605.02
1576.77
-10000.4
1580.07
-10396.3
1582.32
-10792.3
1583.64
-11188.3
1584.12
-11584.1
1583.85
-11979.7
1582.92
-12374.8
1581.39
-12769.3
1579.31
-13163.2
1576.74
-13556.2
1573.7
-13948.4
1570.24
-14339.6
1566.38
-14729.7
1562.15
-15118.6
1557.58
-15506.3
1552.67
-15892.6
1547.45
-16277.6
1541.93
-16661.1
1536.12
-17043.1
1530.04
-17423.5
1523.7
-17802.2
1517.1
-18179.2
1510.25
-18554.5
1503.17
-18927.9
1495.85
-19299.4
1488.31
-19669
1480.54
-20036.5
1472.57
-20402.1
1464.38
-20765.5
1455.99
-21126.8
1447.39
-21485.9
1438.6
-21842.7
1429.62
-22197.2
1420.44
-22549.4
1411.08
-22899.2
1401.54
-23246.6
1391.81
-23591.5
1381.91
-23933.9
1371.83
-24273.8
1361.58
-24611
1351.16
-24945.6
1340.58
-25277.5
1329.83
-25606.6
1318.92
-25933
1307.85
-26256.7
1296.63
-26577.4
1285.25
-26895.3
1273.72
-27210.3
1262.03
-27522.3
1250.21
-27831.3
1238.23
-28137.3
1226.11
-28440.2
1213.86
-28740
1201.46
-29036.7
1188.93
-29330.3
1176.26
-29620.6
1163.46
-29907.7
1150.53
-30191.6
1137.48
-30472.1
1124.3
-30749.4
1110.99
-31023.3
1097.57
-31293.8
1084.03
-31560.9
1070.37
-31824.5
1056.59
-32084.7
1042.71
-32341.4
1028.71
-32594.6
1014.61
-32844.2
1000.4
-33090.2
986.087
-33332.7
971.675
-33571.5
957.164
-33806.7
942.557
-34038.2
927.855
-34266
913.063
-34490.1
898.18
-34710.5
883.211
-34927.1
868.157
-35139.9
853.021
-35348.9
837.804
-35554.1
822.509
-35755.5
807.139
-35953
791.696
-36146.6
776.182
-36336.4
760.599
-36522.2
744.95
-36704.1
729.237
-36882.1
713.463
-37056.1
697.63
-37226.2
681.74
-37392.3
665.796
-37554.3
649.799
-37712.4
633.753
-37866.5
617.659
-38016.5
601.521
-38162.5
585.34
-38304.4
569.118
-38442.3
552.859
-38576.1
536.564
-38705.9
520.236
-38831.5
503.877
-38953.1
487.489
-39070.6
471.076
-39183.9
454.638
-39293.2
438.179
-39398.3
421.701
-39499.3
405.206
-39596.2
388.696
-39689
372.174
-39777.7
355.642
-39862.2
339.102
-39942.6
322.556
-40018.8
306.008
-40091
289.458
-40159
272.91
-40222.8
256.365
-40282.6
239.825
-40338.2
223.294
-40389.7
206.773
-40437
190.264
-40480.3
173.769
-40519.4
157.29
-40554.5
140.831
-40585.4
124.392
-40612.2
107.975
-40635
91.5841
-40653.6
75.2196
-40668.2
58.884
-40678.7
42.5794
-40685.2
26.3077
-40687.6
10.0709
-40685.9
-6.12911
-40680.2
-22.2903
-40670.5
-38.4109
-40656.8
-54.4888
-40639.1
-70.5224
-40617.4
-86.5097
-40591.7
-102.449
-40562.1
-118.338
-40528.5
-134.176
-40491
-149.96
-40449.5
-165.69
-40404.1
-181.362
-40354.9
-196.976
-40301.7
-212.53
-40244.7
-228.022
-40183.8
-243.451
-40119.1
-258.815
-40050.6
-274.112
-39978.3
-289.342
-39902.2
-304.502
-39822.3
-319.591
-39738.7
-334.607
-39651.4
-349.55
-39560.4
-364.418
-39465.6
-379.21
-39367.2
-393.923
-39265.2
-408.558
-39159.5
-423.112
-39050.2
-437.584
-38937.3
-451.973
-38820.8
-466.279
-38700.8
-480.499
-38577.3
-494.633
-38450.3
-508.679
-38319.8
-522.637
-38185.8
-536.506
-38048.4
-550.283
-37907.6
-563.969
-37763.4
-577.563
-37615.8
-591.063
-37464.9
-604.468
-37310.6
-617.779
-37153.1
-630.993
-36992.3
-644.11
-36828.2
-657.129
-36660.9
-670.05
-36490.5
-682.871
-36316.8
-695.593
-36140
-708.213
-35960.1
-720.732
-35777.1
-733.149
-35591
-745.463
-35401.9
-757.674
-35209.7
-769.781
-35014.6
-781.784
-34816.5
-793.682
-34615.5
-805.474
-34411.5
-817.16
-34204.6
-828.74
-33994.9
-840.213
-33782.4
-851.578
-33567.1
-862.837
-33348.9
-873.987
-33128
-885.028
-32904.4
-895.962
-32678.1
-906.786
-32449.2
-917.501
-32217.5
-928.106
-31983.3
-938.602
-31746.5
-948.988
-31507.1
-959.264
-31265.2
-969.429
-31020.8
-979.484
-30773.9
-989.428
-30524.5
-999.262
-30272.7
-1008.98
-30018.5
-1018.6
-29762
-1028.1
-29503.1
-1037.49
-29241.9
-1046.77
-28978.5
-1055.93
-28712.7
-1064.99
-28444.8
-1073.94
-28174.6
-1082.77
-27902.2
-1091.49
-27627.8
-1100.11
-27351.2
-1108.61
-27072.5
-1117
-26791.7
-1125.28
-26508.9
-1133.44
-26224.1
-1141.5
-25937.3
-1149.45
-25648.6
-1157.29
-25357.9
-1165.02
-25065.4
-1172.63
-24771
-1180.14
-24474.7
-1187.54
-24176.6
-1194.83
-23876.7
-1202
-23575.1
-1209.07
-23271.7
-1216.03
-22966.6
-1222.89
-22659.9
-1229.63
-22351.5
-1236.26
-22041.4
-1242.79
-21729.8
-1249.21
-21416.6
-1255.52
-21101.9
-1261.72
-20785.6
-1267.82
-20467.8
-1273.81
-20148.6
-1279.69
-19827.9
-1285.47
-19505.9
-1291.14
-19182.4
-1296.71
-18857.6
-1302.17
-18531.4
-1307.52
-18203.9
-1312.77
-17875.2
-1317.91
-17545.2
-1322.95
-17214
-1327.89
-16881.5
-1332.72
-16547.9
-1337.45
-16213.2
-1342.07
-15877.3
-1346.59
-15540.3
-1351.01
-15202.2
-1355.33
-14863.1
-1359.54
-14523
-1363.65
-14181.9
-1367.66
-13839.8
-1371.57
-13496.7
-1375.38
-13152.7
-1379.08
-12807.9
-1382.69
-12462.1
-1386.19
-12115.5
-1389.6
-11768.1
-1392.9
-11419.9
-1396.11
-11070.9
-1399.22
-10721.1
-1402.23
-10370.7
-1405.14
-10019.5
-1407.95
-9667.68
-1410.66
-9315.19
-1413.28
-8962.08
-1415.8
-8608.36
-1418.22
-8254.06
-1420.54
-7899.2
-1422.77
-7543.82
-1424.91
-7187.93
-1426.95
-6831.55
-1428.89
-6474.71
-1430.74
-6117.44
-1432.49
-5759.76
-1434.15
-5401.68
-1435.71
-5043.24
-1437.18
-4684.46
-1438.55
-4325.36
-1439.83
-3965.97
-1441.01
-3606.3
-1442.1
-3246.39
-1443.09
-2886.26
-1443.99
-2525.92
-1444.79
-2165.41
-1445.49
-1804.75
-1446.1
-1443.96
-1446.61
-1083.07
-1447.03
-722.094
-1447.35
-361.065
-1447.58
-1447.71
-641.367
3367.71
-1270.58
3294.59
-1876.91
3152.52
-2452.69
2962.95
-2993.98
2751.62
-3500.62
2542.84
-3975.47
2355.66
-4423.43
2201.7
-4850.3
2085.25
-5261.83
2004.69
-5663.09
1954.66
-6058.16
1928.19
-6450
1918.26
-6840.65
1918.84
-7231.33
1925.31
-7622.71
1934.42
-8015.08
1944.11
-8408.48
1953.2
-8802.82
1961.1
-9197.96
1967.6
-9593.7
1972.67
-9989.86
1976.4
-10386.3
1978.88
-10782.7
1980.26
-11179.1
1980.65
-11575.2
1980.14
-11970.9
1978.83
-12366.2
1976.8
-12760.8
1974.1
-13154.7
1970.79
-13547.7
1966.93
-13939.9
1962.54
-14331
1957.66
-14721
1952.33
-15109.8
1946.57
-15497.4
1940.4
-15883.6
1933.85
-16268.5
1926.92
-16651.8
1919.65
-17033.7
1912.03
-17413.9
1904.08
-17792.4
1895.82
-18169.3
1887.25
-18544.3
1878.38
-18917.5
1869.23
-19288.8
1859.79
-19658.2
1850.08
-20025.6
1840.1
-20390.9
1829.86
-20754.1
1819.37
-21115.2
1808.62
-21474.1
1797.63
-21830.7
1786.4
-22185
1774.93
-22537
1763.22
-22886.6
1751.29
-23233.7
1739.13
-23578.4
1726.76
-23920.6
1714.16
-24260.2
1701.35
-24597.2
1688.33
-24931.6
1675.1
-25263.3
1661.67
-25592.2
1648.03
-25918.4
1634.2
-26241.8
1620.17
-26562.3
1605.94
-26880
1591.53
-27194.7
1576.93
-27506.5
1562.15
-27815.3
1547.18
-28121.1
1532.04
-28423.8
1516.72
-28723.4
1501.23
-29019.9
1485.57
-29313.3
1469.74
-29603.4
1453.74
-29890.3
1437.59
-30173.9
1421.27
-30454.3
1404.8
-30731.3
1388.18
-31005
1371.4
-31275.3
1354.47
-31542.2
1337.4
-31805.7
1320.19
-32065.6
1302.84
-32322.1
1285.35
-32575.1
1267.72
-32824.5
1249.97
-33070.4
1232.08
-33312.7
1214.07
-33551.3
1195.94
-33786.3
1177.69
-34017.6
1159.31
-34245.2
1140.83
-34469.2
1122.23
-34689.3
1103.53
-34905.8
1084.71
-35118.4
1065.8
-35327.3
1046.78
-35532.3
1027.67
-35733.5
1008.46
-35930.8
989.165
-36124.3
969.779
-36313.9
950.306
-36499.6
930.751
-36681.3
911.117
-36859.1
891.405
-37033
871.62
-37202.9
851.763
-37368.8
831.839
-37530.8
811.85
-37688.7
791.798
-37842.6
771.688
-37992.5
751.521
-38138.3
731.301
-38280.1
711.031
-38417.9
690.713
-38551.6
670.351
-38681.2
649.948
-38806.7
629.506
-38928.1
609.028
-39045.5
588.518
-39158.7
567.978
-39267.8
547.411
-39372.9
526.82
-39473.8
506.208
-39570.5
485.578
-39663.2
464.932
-39751.7
444.274
-39836.2
423.606
-39916.4
402.932
-39992.6
382.253
-40064.6
361.573
-40132.5
340.895
-40196.3
320.221
-40256
299.554
-40311.5
278.897
-40362.9
258.253
-40410.2
237.624
-40453.3
217.013
-40492.4
196.422
-40527.4
175.855
-40558.2
155.314
-40585
134.801
-40607.7
114.319
-40626.2
93.8714
-40640.8
73.4596
-40651.2
53.0864
-40657.6
32.7544
-40659.9
12.4661
-40658.3
-7.77618
-40652.5
-27.97
-40642.8
-48.1129
-40629
-68.2027
-40611.3
-88.2368
-40589.5
-108.213
-40563.8
-128.129
-40534.1
-147.983
-40500.5
-167.773
-40462.9
-187.495
-40421.4
-207.149
-40376
-226.732
-40326.8
-246.241
-40273.6
-265.676
-40216.6
-285.033
-40155.7
-304.311
-40091
-323.508
-40022.5
-342.622
-39950.1
-361.651
-39874.1
-380.593
-39794.2
-399.446
-39710.6
-418.209
-39623.3
-436.88
-39532.2
-455.457
-39437.5
-473.938
-39339.1
-492.322
-39237.1
-510.607
-39131.4
-528.791
-39022.2
-546.874
-38909.3
-564.853
-38792.9
-582.726
-38672.9
-600.494
-38549.4
-618.153
-38422.4
-635.703
-38292
-653.143
-38158
-670.47
-38020.7
-687.684
-37879.9
-704.784
-37735.8
-721.768
-37588.2
-738.635
-37437.4
-755.384
-37283.2
-772.014
-37125.7
-788.524
-36965
-804.913
-36801
-821.179
-36633.8
-837.322
-36463.4
-853.341
-36289.9
-869.235
-36113.1
-885.002
-35933.3
-900.644
-35750.4
-916.157
-35564.4
-931.542
-35375.4
-946.798
-35183.3
-961.924
-34988.3
-976.92
-34790.3
-991.784
-34589.3
-1006.52
-34385.5
-1021.12
-34178.8
-1035.58
-33969.2
-1049.92
-33756.8
-1064.12
-33541.5
-1078.18
-33323.5
-1092.11
-33102.8
-1105.91
-32879.3
-1119.57
-32653.1
-1133.09
-32424.3
-1146.48
-32192.8
-1159.73
-31958.7
-1172.84
-31722
-1185.81
-31482.8
-1198.65
-31241
-1211.35
-30996.8
-1223.91
-30750
-1236.34
-30500.8
-1248.62
-30249.2
-1260.77
-29995.2
-1272.78
-29738.8
-1284.65
-29480.1
-1296.38
-29219.1
-1307.97
-28955.8
-1319.42
-28690.2
-1330.74
-28422.4
-1341.91
-28152.4
-1352.95
-27880.3
-1363.84
-27606
-1374.6
-27329.6
-1385.22
-27051.1
-1395.71
-26770.5
-1406.05
-26487.9
-1416.25
-26203.3
-1426.32
-25916.7
-1436.25
-25628.2
-1446.04
-25337.8
-1455.69
-25045.4
-1465.21
-24751.2
-1474.59
-24455.1
-1483.83
-24157.3
-1492.93
-23857.6
-1501.9
-23556.2
-1510.73
-23253
-1519.43
-22948.2
-1527.99
-22641.7
-1536.41
-22333.5
-1544.7
-22023.7
-1552.85
-21712.3
-1560.87
-21399.3
-1568.75
-21084.8
-1576.5
-20768.8
-1584.12
-20451.2
-1591.6
-20132.3
-1598.95
-19811.8
-1606.17
-19490
-1613.25
-19166.8
-1620.2
-18842.2
-1627.02
-18516.3
-1633.71
-18189.1
-1640.27
-17860.6
-1646.69
-17530.9
-1652.99
-17199.9
-1659.15
-16867.7
-1665.19
-16534.4
-1671.09
-16199.9
-1676.87
-15864.3
-1682.52
-15527.5
-1688.04
-15189.8
-1693.43
-14850.9
-1698.69
-14511
-1703.83
-14170.2
-1708.84
-13828.4
-1713.72
-13485.6
-1718.47
-13141.9
-1723.1
-12797.3
-1727.61
-12451.8
-1731.99
-12105.5
-1736.24
-11758.4
-1740.37
-11410.4
-1744.37
-11061.7
-1748.25
-10712.3
-1752.01
-10362.1
-1755.65
-10011.2
-1759.16
-9659.67
-1762.55
-9307.47
-1765.82
-8954.64
-1768.96
-8601.21
-1771.99
-8247.2
-1774.9
-7892.64
-1777.68
-7537.55
-1780.35
-7181.95
-1782.89
-6825.87
-1785.32
-6469.33
-1787.63
-6112.35
-1789.81
-5754.96
-1791.88
-5397.19
-1793.84
-5039.04
-1795.67
-4680.56
-1797.39
-4321.76
-1798.98
-3962.66
-1800.46
-3603.3
-1801.82
-3243.69
-1803.06
-2883.85
-1804.18
-2523.82
-1805.18
-2163.61
-1806.06
-1803.24
-1806.82
-1442.75
-1807.46
-1082.16
-1807.98
-721.489
-1808.38
-360.76
-1808.66
-1808.83
-623.429
3991.28
-1236.09
3907.41
-1828.78
3745.35
-2394.79
3529.11
-2930.49
3287.49
-3435.45
3047.97
-3911.85
2832.22
-4363.7
2653.71
-4795.89
2517.6
-5213.38
2422.35
-5620.66
2362.11
-6021.39
2329.08
-6418.32
2315.36
-6813.38
2314.07
-7207.8
2319.9
-7602.3
2329.08
-7997.24
2339.21
-8392.75
2348.87
-8788.81
2357.34
-9185.35
2364.31
-9582.23
2369.72
-9979.32
2373.65
-10376.5
2376.2
-10773.5
2377.5
-11170.4
2377.67
-11566.9
2376.82
-11962.9
2375.05
-12358.4
2372.44
-12753.2
2369.06
-13147.2
2364.98
-13540.4
2360.24
-13932.6
2354.89
-14323.7
2348.97
-14713.7
2342.51
-15102.5
2335.54
-15490.1
2328.09
-15876.2
2320.19
-16261
2311.84
-16644.2
2303.08
-17026
2293.91
-17406.1
2284.35
-17784.5
2274.41
-18161.2
2264.11
-18536.1
2253.46
-18909.2
2242.46
-19280.3
2231.12
-19649.6
2219.46
-20016.8
2207.48
-20381.9
2195.18
-20745
2182.58
-21105.9
2169.68
-21464.6
2156.48
-21821
2143
-22175.2
2129.23
-22527
2115.19
-22876.4
2100.87
-23223.4
2086.28
-23567.9
2071.42
-23909.9
2056.31
-24249.3
2040.93
-24586.1
2025.31
-24920.3
2009.43
-25251.8
1993.31
-25580.5
1976.95
-25906.5
1960.35
-26229.7
1943.52
-26550.1
1926.45
-26867.6
1909.16
-27182.1
1891.64
-27493.7
1873.91
-27802.3
1855.95
-28107.9
1837.78
-28410.5
1819.4
-28709.9
1800.82
-29006.2
1782.03
-29299.3
1763.03
-29589.3
1743.84
-29876
1724.46
-30159.5
1704.89
-30439.7
1685.12
-30716.5
1665.18
-30990
1645.05
-31260.1
1624.74
-31526.9
1604.26
-31790.1
1583.61
-32050
1562.79
-32306.3
1541.81
-32559.1
1520.67
-32808.3
1499.37
-33054
1477.91
-33296.1
1456.3
-33534.6
1434.55
-33769.4