/*--------------------------------*- C++ -*----------------------------------*\
| =========                 |                                                 |
| \\      /  F ield         | OpenFOAM: The Open Source CFD Toolbox           |
|  \\    /   O peration     | Version:  2212                                  |
|   \\  /    A nd           | Website:  www.openfoam.com                      |
|    \\/     M anipulation  |                                                 |
\*---------------------------------------------------------------------------*/
FoamFile
{
    version     2.0;
    format      ascii;
    arch        "LSB;label=32;scalar=64";
    class       volScalarField;
    location    "590";
    object      p_rgh_0;
}
// * * * * * * * * * * * * * * * * * * * * * * * * * * * * * * * * * * * * * //

dimensions      [1 -1 -2 0 0 0 0];

internalField   nonuniform List<scalar> 
204800
(
45.151
45.1478
45.1357
45.1161
45.0895
45.0565
45.017
44.9714
44.9195
44.8619
44.7985
44.7297
44.6557
44.5767
44.4928
44.4042
44.311
44.2133
44.1113
44.0051
43.8948
43.7805
43.6624
43.5404
43.4149
43.2858
43.1533
43.0176
42.8786
42.7367
42.5917
42.444
42.2936
42.1407
41.9853
41.8275
41.6676
41.5056
41.3416
41.1757
41.0082
40.839
40.6683
40.4962
40.3229
40.1484
39.9729
39.7964
39.6192
39.4412
39.2626
39.0835
38.9041
38.7243
38.5444
38.3643
38.1843
38.0044
37.8247
37.6453
37.4663
37.2878
37.1098
36.9325
36.7559
36.5802
36.4053
36.2314
36.0586
35.8868
35.7163
35.547
35.3791
35.2125
35.0474
34.8838
34.7218
34.5614
34.4026
34.2456
34.0904
33.937
33.7855
33.6359
33.4882
33.3426
33.1989
33.0574
32.9179
32.7805
32.6453
32.5123
32.3815
32.2529
32.1265
32.0024
31.8806
31.7611
31.6439
31.529
31.4164
31.3062
31.1983
31.0928
30.9896
30.8888
30.7903
30.6942
30.6005
30.509
30.42
30.3332
30.2488
30.1667
30.0869
30.0094
29.9342
29.8612
29.7905
29.7221
29.6558
29.5918
29.53
29.4703
29.4128
29.3574
29.3041
29.2529
29.2038
29.1567
29.1116
29.0685
29.0274
28.9882
28.951
28.9156
28.8821
28.8504
28.8205
28.7925
28.7661
28.7415
28.7186
28.6974
28.6778
28.6598
28.6434
28.6285
28.6152
28.6034
28.593
28.5841
28.5765
28.5704
28.5656
28.5621
28.56
28.559
28.5594
28.5609
28.5636
28.5674
28.5724
28.5784
28.5855
28.5937
28.6029
28.613
28.6241
28.6361
28.6491
28.6628
28.6775
28.693
28.7092
28.7263
28.7441
28.7626
28.7818
28.8016
28.8222
28.8433
28.8651
28.8874
28.9103
28.9338
28.9577
28.9821
29.007
29.0324
29.0582
29.0844
29.111
29.1379
29.1652
29.1929
29.2208
29.2491
29.2776
29.3064
29.3354
29.3646
29.3941
29.4237
29.4535
29.4835
29.5136
29.5439
29.5742
29.6047
29.6353
29.6659
29.6965
29.7273
29.758
29.7888
29.8195
29.8503
29.8811
29.9118
29.9425
29.9731
30.0036
30.0341
30.0645
30.0949
30.1251
30.1552
30.1851
30.215
30.2447
30.2742
30.3036
30.3329
30.3619
30.3908
30.4195
30.448
30.4762
30.5043
30.5322
30.5598
30.5872
30.6144
30.6413
30.668
30.6944
30.7206
30.7465
30.7721
30.7974
30.8225
30.8473
30.8718
30.896
30.9199
30.9435
30.9668
30.9898
31.0125
31.0349
31.0569
31.0786
31.1
31.1211
31.1418
31.1622
31.1822
31.202
31.2213
31.2403
31.259
31.2773
31.2953
31.3129
31.3302
31.3471
31.3636
31.3798
31.3956
31.411
31.4261
31.4408
31.4551
31.4691
31.4827
31.4959
31.5087
31.5211
31.5332
31.5449
31.5562
31.5672
31.5777
31.5879
31.5977
31.6071
31.6161
31.6247
31.633
31.6408
31.6483
31.6553
31.662
31.6683
31.6742
31.6797
31.6848
31.6896
31.6939
31.6978
31.7014
31.7045
31.7073
31.7097
31.7116
31.7132
31.7144
31.7152
31.7156
45.0957
45.0882
45.0723
45.0487
45.018
44.9812
44.9385
44.8902
44.8363
44.7772
44.7128
44.6434
44.569
44.4897
44.4057
44.317
44.2238
44.1263
44.0244
43.9183
43.8081
43.694
43.5759
43.4542
43.3288
43.1999
43.0677
42.9321
42.7934
42.6516
42.507
42.3595
42.2094
42.0566
41.9015
41.744
41.5844
41.4226
41.2589
41.0933
40.926
40.7571
40.5867
40.415
40.2419
40.0678
39.8925
39.7164
39.5394
39.3618
39.1835
39.0047
38.8256
38.6461
38.4665
38.2868
38.1071
37.9276
37.7482
37.5691
37.3904
37.2122
37.0346
36.8576
36.6813
36.5059
36.3313
36.1578
35.9852
35.8138
35.6436
35.4746
35.307
35.1407
34.9759
34.8126
34.6509
34.4908
34.3324
34.1757
34.0207
33.8676
33.7164
33.5671
33.4197
33.2743
33.131
32.9897
32.8504
32.7134
32.5784
32.4456
32.3151
32.1867
32.0606
31.9368
31.8152
31.6959
31.5789
31.4643
31.3519
31.2419
31.1343
31.029
30.926
30.8254
30.7271
30.6312
30.5376
30.4464
30.3575
30.2709
30.1867
30.1047
30.0251
29.9478
29.8727
29.7999
29.7294
29.661
29.595
29.5311
29.4694
29.4098
29.3524
29.2972
29.244
29.1929
29.1439
29.0969
29.052
29.009
28.9679
28.9289
28.8917
28.8564
28.823
28.7914
28.7616
28.7336
28.7073
28.6828
28.6599
28.6387
28.6192
28.6013
28.5849
28.5701
28.5568
28.545
28.5347
28.5258
28.5183
28.5122
28.5075
28.504
28.5019
28.501
28.5013
28.5028
28.5055
28.5094
28.5144
28.5204
28.5275
28.5357
28.5449
28.555
28.5661
28.5781
28.591
28.6048
28.6195
28.6349
28.6512
28.6682
28.686
28.7044
28.7236
28.7435
28.764
28.7851
28.8069
28.8292
28.852
28.8754
28.8994
28.9238
28.9486
28.974
28.9997
29.0259
29.0524
29.0793
29.1066
29.1342
29.1621
29.1903
29.2188
29.2475
29.2765
29.3057
29.3351
29.3647
29.3945
29.4244
29.4545
29.4847
29.515
29.5454
29.5759
29.6065
29.6371
29.6678
29.6985
29.7292
29.7599
29.7906
29.8213
29.852
29.8826
29.9132
29.9437
29.9742
30.0045
30.0348
30.0649
30.095
30.1249
30.1547
30.1844
30.2139
30.2432
30.2724
30.3014
30.3302
30.3589
30.3873
30.4155
30.4436
30.4714
30.499
30.5263
30.5534
30.5803
30.607
30.6333
30.6594
30.6853
30.7109
30.7362
30.7612
30.786
30.8104
30.8346
30.8585
30.882
30.9053
30.9282
30.9509
30.9732
30.9952
31.0169
31.0382
31.0593
31.08
31.1003
31.1203
31.14
31.1593
31.1783
31.197
31.2153
31.2332
31.2508
31.268
31.2849
31.3014
31.3175
31.3333
31.3487
31.3637
31.3784
31.3927
31.4067
31.4202
31.4334
31.4462
31.4586
31.4707
31.4824
31.4937
31.5046
31.5151
31.5253
31.535
31.5444
31.5534
31.562
31.5702
31.5781
31.5855
31.5926
31.5993
31.6055
31.6114
31.6169
31.622
31.6268
31.6311
31.635
31.6386
31.6417
31.6445
31.6468
31.6488
31.6504
31.6516
31.6523
31.6527
45.0804
45.0722
45.0559
45.0325
45.0021
44.9655
44.9228
44.8746
44.8207
44.7615
44.6971
44.6275
44.553
44.4736
44.3894
44.3007
44.2074
44.1097
44.0077
43.9015
43.7912
43.677
43.5589
43.4371
43.3116
43.1827
43.0503
42.9147
42.776
42.6342
42.4894
42.3419
42.1917
42.039
41.8838
41.7263
41.5665
41.4048
41.241
41.0754
40.9081
40.7392
40.5688
40.397
40.2239
40.0497
39.8745
39.6983
39.5213
39.3436
39.1654
38.9866
38.8074
38.628
38.4484
38.2687
38.089
37.9094
37.73
37.551
37.3723
37.1941
37.0164
36.8395
36.6632
36.4878
36.3133
36.1397
35.9672
35.7958
35.6256
35.4566
35.289
35.1228
34.958
34.7947
34.633
34.473
34.3146
34.1579
34.003
33.8499
33.6987
33.5494
33.4021
33.2568
33.1134
32.9722
32.833
32.6959
32.561
32.4283
32.2978
32.1695
32.0434
31.9196
31.7981
31.6789
31.5619
31.4473
31.335
31.2251
31.1175
31.0122
30.9093
30.8087
30.7105
30.6146
30.5211
30.4299
30.3411
30.2545
30.1704
30.0885
30.0089
29.9316
29.8566
29.7839
29.7134
29.6451
29.5791
29.5153
29.4536
29.3941
29.3368
29.2816
29.2285
29.1774
29.1285
29.0815
29.0366
28.9937
28.9527
28.9137
28.8765
28.8413
28.8079
28.7764
28.7466
28.7187
28.6925
28.668
28.6452
28.624
28.6045
28.5867
28.5704
28.5556
28.5424
28.5306
28.5203
28.5115
28.504
28.498
28.4933
28.4899
28.4877
28.4869
28.4873
28.4888
28.4916
28.4955
28.5005
28.5066
28.5137
28.5219
28.5311
28.5413
28.5524
28.5645
28.5774
28.5913
28.6059
28.6214
28.6377
28.6548
28.6726
28.6911
28.7103
28.7302
28.7507
28.7719
28.7936
28.816
28.8389
28.8623
28.8863
28.9107
28.9356
28.9609
28.9867
29.0129
29.0395
29.0664
29.0937
29.1213
29.1493
29.1775
29.206
29.2347
29.2637
29.293
29.3224
29.352
29.3818
29.4117
29.4418
29.4721
29.5024
29.5328
29.5633
29.5939
29.6245
29.6552
29.6859
29.7167
29.7474
29.7781
29.8089
29.8395
29.8702
29.9008
29.9313
29.9618
29.9921
30.0224
30.0526
30.0826
30.1126
30.1424
30.172
30.2015
30.2309
30.2601
30.2891
30.3179
30.3466
30.375
30.4033
30.4313
30.4591
30.4867
30.5141
30.5412
30.5681
30.5947
30.6211
30.6472
30.6731
30.6987
30.724
30.7491
30.7738
30.7983
30.8224
30.8463
30.8699
30.8931
30.9161
30.9387
30.9611
30.9831
31.0048
31.0261
31.0472
31.0678
31.0882
31.1082
31.1279
31.1472
31.1662
31.1849
31.2032
31.2211
31.2387
31.2559
31.2728
31.2893
31.3054
31.3212
31.3366
31.3517
31.3664
31.3807
31.3946
31.4082
31.4213
31.4342
31.4466
31.4586
31.4703
31.4816
31.4925
31.5031
31.5132
31.523
31.5324
31.5414
31.55
31.5582
31.566
31.5735
31.5806
31.5872
31.5935
31.5994
31.6049
31.61
31.6147
31.6191
31.623
31.6265
31.6297
31.6324
31.6348
31.6368
31.6383
31.6395
31.6403
31.6407
45.0219
45.0131
44.9957
44.9708
44.9388
44.9005
44.8563
44.8065
44.7514
44.6911
44.6258
44.5555
44.4804
44.4006
44.3161
44.2271
44.1336
44.0358
43.9337
43.8274
43.7171
43.6029
43.4848
43.363
43.2376
43.1087
42.9764
42.8408
42.7021
42.5604
42.4157
42.2683
42.1182
41.9656
41.8105
41.6531
41.4935
41.3319
41.1682
41.0028
40.8356
40.6669
40.4966
40.325
40.1521
39.978
39.803
39.627
39.4502
39.2727
39.0946
38.916
38.7371
38.5578
38.3784
38.1989
38.0194
37.84
37.6609
37.482
37.3035
37.1255
36.9481
36.7713
36.5953
36.4201
36.2458
36.0724
35.9002
35.729
35.559
35.3903
35.2229
35.0569
34.8923
34.7293
34.5678
34.4079
34.2498
34.0933
33.9386
33.7858
33.6348
33.4857
33.3386
33.1935
33.0504
32.9093
32.7704
32.6335
32.4988
32.3663
32.236
32.1079
31.9821
31.8585
31.7371
31.6181
31.5014
31.387
31.2749
31.1651
31.0577
30.9526
30.8499
30.7495
30.6515
30.5558
30.4624
30.3714
30.2827
30.1964
30.1124
30.0307
29.9512
29.8741
29.7993
29.7267
29.6564
29.5883
29.5224
29.4587
29.3972
29.3378
29.2806
29.2256
29.1726
29.1217
29.0729
29.026
28.9813
28.9384
28.8976
28.8587
28.8217
28.7865
28.7533
28.7218
28.6922
28.6643
28.6382
28.6138
28.5911
28.5701
28.5507
28.5329
28.5166
28.502
28.4888
28.4771
28.4669
28.4582
28.4508
28.4448
28.4401
28.4368
28.4347
28.4339
28.4344
28.436
28.4388
28.4428
28.4478
28.454
28.4612
28.4694
28.4786
28.4889
28.5
28.5121
28.5251
28.539
28.5537
28.5692
28.5855
28.6026
28.6204
28.6389
28.6582
28.6781
28.6986
28.7198
28.7416
28.7639
28.7868
28.8103
28.8342
28.8587
28.8836
28.9089
28.9347
28.9609
28.9875
29.0144
29.0417
29.0693
29.0973
29.1255
29.154
29.1827
29.2117
29.2409
29.2703
29.3
29.3297
29.3597
29.3898
29.42
29.4503
29.4807
29.5112
29.5418
29.5724
29.6031
29.6338
29.6645
29.6952
29.7259
29.7566
29.7873
29.8179
29.8485
29.879
29.9094
29.9397
29.97
30.0002
30.0302
30.0601
30.0899
30.1195
30.149
30.1783
30.2075
30.2365
30.2653
30.2939
30.3224
30.3506
30.3786
30.4064
30.434
30.4613
30.4884
30.5153
30.5419
30.5683
30.5944
30.6202
30.6458
30.6711
30.6961
30.7208
30.7453
30.7694
30.7933
30.8168
30.84
30.863
30.8856
30.9079
30.9299
30.9516
30.9729
30.9939
31.0146
31.0349
31.0549
31.0746
31.0939
31.1129
31.1315
31.1498
31.1677
31.1853
31.2025
31.2193
31.2358
31.2519
31.2677
31.2831
31.2981
31.3128
31.3271
31.341
31.3545
31.3677
31.3805
31.3929
31.405
31.4166
31.4279
31.4388
31.4494
31.4595
31.4693
31.4786
31.4876
31.4962
31.5044
31.5123
31.5197
31.5268
31.5334
31.5397
31.5456
31.5511
31.5562
31.5609
31.5652
31.5692
31.5727
31.5758
31.5786
31.581
31.5829
31.5845
31.5857
31.5865
31.5869
44.9943
44.9858
44.9688
44.9444
44.9128
44.8749
44.8308
44.7812
44.726
44.6656
44.6002
44.5297
44.4544
44.3744
44.2897
44.2004
44.1067
44.0087
43.9064
43.8
43.6895
43.575
43.4568
43.3348
43.2092
43.0802
42.9477
42.8121
42.6732
42.5314
42.3866
42.2391
42.0889
41.9361
41.7809
41.6234
41.4638
41.302
41.1383
40.9728
40.8055
40.6367
40.4663
40.2946
40.1217
39.9476
39.7725
39.5964
39.4196
39.242
39.0639
38.8853
38.7063
38.527
38.3475
38.168
37.9885
37.8091
37.6299
37.451
37.2725
37.0945
36.9171
36.7403
36.5643
36.3891
36.2148
36.0415
35.8692
35.698
35.5281
35.3594
35.192
35.026
34.8615
34.6985
34.537
34.3772
34.2191
34.0626
33.908
33.7552
33.6043
33.4553
33.3082
33.1631
33.0201
32.8791
32.7402
32.6034
32.4688
32.3363
32.2061
32.078
31.9523
31.8287
31.7075
31.5885
31.4719
31.3575
31.2455
31.1359
31.0285
30.9235
30.8209
30.7206
30.6226
30.527
30.4338
30.3429
30.2543
30.168
30.0841
30.0025
29.9232
29.8461
29.7714
29.6989
29.6286
29.5606
29.4949
29.4313
29.3699
29.3106
29.2535
29.1985
29.1457
29.0949
29.0461
28.9994
28.9547
28.912
28.8712
28.8324
28.7955
28.7605
28.7273
28.6959
28.6664
28.6386
28.6126
28.5883
28.5657
28.5448
28.5254
28.5077
28.4916
28.477
28.4639
28.4524
28.4422
28.4336
28.4263
28.4204
28.4158
28.4125
28.4106
28.4098
28.4104
28.4121
28.4149
28.419
28.4241
28.4303
28.4376
28.4459
28.4552
28.4655
28.4768
28.4889
28.502
28.5159
28.5307
28.5463
28.5626
28.5798
28.5977
28.6163
28.6356
28.6556
28.6762
28.6974
28.7192
28.7416
28.7646
28.7881
28.8121
28.8366
28.8616
28.887
28.9128
28.9391
28.9657
28.9927
29.02
29.0477
29.0757
29.1039
29.1325
29.1613
29.1903
29.2196
29.249
29.2787
29.3085
29.3385
29.3686
29.3988
29.4292
29.4596
29.4902
29.5208
29.5514
29.5821
29.6129
29.6436
29.6744
29.7051
29.7359
29.7665
29.7972
29.8278
29.8583
29.8888
29.9192
29.9495
29.9796
30.0097
30.0396
30.0694
30.0991
30.1286
30.158
30.1872
30.2162
30.245
30.2737
30.3021
30.3303
30.3584
30.3862
30.4138
30.4411
30.4683
30.4951
30.5218
30.5482
30.5743
30.6001
30.6257
30.651
30.6761
30.7008
30.7253
30.7494
30.7733
30.7968
30.8201
30.843
30.8657
30.888
30.91
30.9317
30.953
30.974
30.9947
31.0151
31.0351
31.0547
31.0741
31.0931
31.1117
31.13
31.1479
31.1655
31.1827
31.1995
31.216
31.2322
31.2479
31.2634
31.2784
31.2931
31.3074
31.3213
31.3348
31.348
31.3608
31.3732
31.3853
31.397
31.4082
31.4192
31.4297
31.4398
31.4496
31.459
31.468
31.4766
31.4848
31.4926
31.5001
31.5071
31.5138
31.5201
31.5259
31.5314
31.5366
31.5413
31.5456
31.5495
31.5531
31.5562
31.559
31.5613
31.5633
31.5649
31.566
31.5668
31.5672
44.9377
44.9292
44.9119
44.8871
44.855
44.8164
44.7716
44.7211
44.6652
44.6041
44.5379
44.4669
44.391
44.3105
44.2254
44.1358
44.0418
43.9435
43.8409
43.7343
43.6236
43.509
43.3906
43.2685
43.1429
43.0137
42.8812
42.7454
42.6065
42.4646
42.3198
42.1722
42.022
41.8692
41.714
41.5565
41.3969
41.2351
41.0714
40.9059
40.7387
40.5699
40.3996
40.2279
40.055
39.881
39.7059
39.5299
39.3531
39.1757
38.9976
38.8191
38.6401
38.4609
38.2816
38.1021
37.9227
37.7434
37.5644
37.3856
37.2072
37.0294
36.8521
36.6754
36.4995
36.3244
36.1503
35.9771
35.8049
35.6339
35.4641
35.2955
35.1283
34.9625
34.7981
34.6352
34.4739
34.3143
34.1563
34.0001
33.8456
33.693
33.5422
33.3934
33.2465
33.1016
32.9587
32.8179
32.6791
32.5425
32.4081
32.2758
32.1457
32.0179
31.8923
31.7689
31.6479
31.5291
31.4126
31.2985
31.1866
31.0771
30.97
30.8652
30.7627
30.6626
30.5648
30.4694
30.3763
30.2855
30.1971
30.1111
30.0273
29.9459
29.8667
29.7898
29.7153
29.6429
29.5729
29.505
29.4394
29.376
29.3147
29.2556
29.1987
29.1439
29.0912
29.0405
28.9919
28.9454
28.9008
28.8582
28.8176
28.7789
28.7422
28.7073
28.6743
28.643
28.6136
28.586
28.5601
28.5359
28.5135
28.4926
28.4734
28.4559
28.4398
28.4254
28.4124
28.4009
28.3909
28.3824
28.3752
28.3694
28.3649
28.3618
28.3599
28.3593
28.3599
28.3617
28.3647
28.3688
28.374
28.3803
28.3877
28.3961
28.4055
28.4158
28.4271
28.4394
28.4525
28.4665
28.4813
28.497
28.5134
28.5307
28.5486
28.5673
28.5866
28.6067
28.6273
28.6486
28.6705
28.693
28.716
28.7395
28.7636
28.7881
28.8131
28.8386
28.8645
28.8908
28.9174
28.9444
28.9718
28.9995
29.0275
29.0558
29.0844
29.1132
29.1423
29.1716
29.2011
29.2307
29.2606
29.2906
29.3207
29.351
29.3814
29.4119
29.4424
29.473
29.5037
29.5344
29.5652
29.5959
29.6267
29.6575
29.6882
29.7189
29.7496
29.7802
29.8107
29.8412
29.8716
29.9019
29.932
29.9621
29.992
30.0219
30.0515
30.081
30.1104
30.1396
30.1686
30.1975
30.2261
30.2545
30.2828
30.3108
30.3386
30.3662
30.3936
30.4207
30.4476
30.4742
30.5006
30.5267
30.5526
30.5781
30.6034
30.6285
30.6532
30.6777
30.7018
30.7257
30.7492
30.7725
30.7954
30.8181
30.8404
30.8624
30.884
30.9054
30.9264
30.9471
30.9674
30.9874
31.0071
31.0264
31.0454
31.064
31.0823
31.1002
31.1178
31.135
31.1518
31.1683
31.1844
31.2002
31.2156
31.2306
31.2453
31.2596
31.2735
31.2871
31.3002
31.313
31.3255
31.3375
31.3492
31.3604
31.3714
31.3819
31.392
31.4018
31.4111
31.4201
31.4287
31.4369
31.4448
31.4522
31.4593
31.4659
31.4722
31.4781
31.4836
31.4887
31.4934
31.4977
31.5017
31.5052
31.5083
31.5111
31.5135
31.5154
31.517
31.5182
31.519
31.5194
44.9035
44.8952
44.8784
44.854
44.8222
44.7839
44.7393
44.689
44.6331
44.5719
44.5055
44.4343
44.3582
44.2774
44.192
44.1021
44.0078
43.9092
43.8064
43.6995
43.5885
43.4737
43.355
43.2327
43.1067
42.9774
42.8446
42.7086
42.5695
42.4274
42.2824
42.1346
41.9842
41.8313
41.6759
41.5182
41.3584
41.1965
41.0327
40.867
40.6996
40.5307
40.3602
40.1885
40.0154
39.8413
39.6661
39.49
39.3131
39.1356
38.9574
38.7788
38.5998
38.4205
38.2411
38.0616
37.8821
37.7027
37.5236
37.3448
37.1664
36.9885
36.8111
36.6345
36.4585
36.2834
36.1092
35.936
35.7639
35.5929
35.423
35.2545
35.0873
34.9215
34.7571
34.5943
34.433
34.2734
34.1154
33.9592
33.8048
33.6522
33.5015
33.3527
33.2059
33.061
32.9182
32.7775
32.6388
32.5023
32.3679
32.2357
32.1057
31.978
31.8525
31.7292
31.6082
31.4895
31.3732
31.2591
31.1474
31.038
30.9309
30.8262
30.7239
30.6239
30.5262
30.4309
30.338
30.2473
30.1591
30.0731
29.9895
29.9081
29.8291
29.7524
29.6779
29.6057
29.5358
29.4681
29.4026
29.3393
29.2782
29.2193
29.1625
29.1078
29.0552
29.0047
28.9562
28.9098
28.8654
28.823
28.7825
28.7439
28.7073
28.6726
28.6397
28.6086
28.5793
28.5518
28.5261
28.502
28.4797
28.459
28.4399
28.4225
28.4066
28.3922
28.3794
28.3681
28.3582
28.3498
28.3427
28.337
28.3327
28.3297
28.3279
28.3274
28.3281
28.3301
28.3332
28.3374
28.3427
28.3492
28.3566
28.3652
28.3747
28.3851
28.3966
28.4089
28.4221
28.4362
28.4512
28.4669
28.4835
28.5008
28.5189
28.5376
28.5571
28.5772
28.598
28.6193
28.6413
28.6639
28.687
28.7106
28.7348
28.7594
28.7845
28.81
28.836
28.8623
28.8891
28.9162
28.9436
28.9714
28.9995
29.0279
29.0565
29.0854
29.1145
29.1439
29.1735
29.2032
29.2331
29.2632
29.2934
29.3237
29.3541
29.3847
29.4153
29.446
29.4767
29.5075
29.5383
29.5691
29.5999
29.6307
29.6615
29.6923
29.723
29.7536
29.7842
29.8147
29.8452
29.8755
29.9057
29.9358
29.9658
29.9957
30.0254
30.0549
30.0843
30.1136
30.1426
30.1715
30.2002
30.2286
30.2569
30.285
30.3128
30.3404
30.3678
30.395
30.4219
30.4486
30.475
30.5011
30.527
30.5526
30.5779
30.603
30.6277
30.6522
30.6764
30.7003
30.7238
30.7471
30.7701
30.7927
30.8151
30.8371
30.8588
30.8801
30.9011
30.9218
30.9422
30.9622
30.9819
31.0012
31.0202
31.0389
31.0572
31.0751
31.0927
31.1099
31.1268
31.1433
31.1594
31.1752
31.1906
31.2056
31.2203
31.2346
31.2486
31.2621
31.2753
31.2881
31.3005
31.3126
31.3243
31.3356
31.3465
31.357
31.3671
31.3769
31.3863
31.3953
31.4039
31.4121
31.4199
31.4274
31.4344
31.4411
31.4474
31.4533
31.4588
31.4639
31.4686
31.4729
31.4769
31.4804
31.4835
31.4863
31.4887
31.4906
31.4922
31.4934
31.4942
31.4946
44.8496
44.8413
44.8245
44.8
44.7681
44.7296
44.6846
44.6339
44.5775
44.5158
44.4489
44.3772
44.3006
44.2194
44.1335
44.0432
43.9485
43.8495
43.7464
43.6391
43.5279
43.4128
43.2939
43.1713
43.0451
42.9155
42.7826
42.6464
42.5071
42.3648
42.2197
42.0718
41.9212
41.7681
41.6126
41.4548
41.2949
41.1329
40.9689
40.8032
40.6357
40.4667
40.2962
40.1243
39.9512
39.777
39.6018
39.4257
39.2488
39.0712
38.893
38.7143
38.5353
38.3561
38.1766
37.9971
37.8177
37.6383
37.4592
37.2804
37.1021
36.9242
36.7469
36.5703
36.3944
36.2193
36.0452
35.8721
35.7
35.529
35.3593
35.1908
35.0237
34.858
34.6937
34.531
34.3699
34.2103
34.0525
33.8964
33.7421
33.5896
33.4391
33.2904
33.1437
32.999
32.8563
32.7157
32.5772
32.4408
32.3066
32.1745
32.0447
31.9171
31.7917
31.6686
31.5478
31.4293
31.3131
31.1992
31.0877
30.9784
30.8716
30.767
30.6649
30.565
30.4676
30.3724
30.2796
30.1892
30.1011
30.0153
29.9319
29.8507
29.7719
29.6953
29.6211
29.5491
29.4793
29.4118
29.3465
29.2834
29.2224
29.1637
29.107
29.0525
29.0001
28.9498
28.9015
28.8553
28.8111
28.7688
28.7285
28.6901
28.6537
28.6191
28.5864
28.5555
28.5264
28.499
28.4734
28.4496
28.4274
28.4068
28.3879
28.3706
28.3549
28.3407
28.3281
28.3169
28.3072
28.2989
28.292
28.2864
28.2822
28.2793
28.2777
28.2774
28.2782
28.2803
28.2835
28.2879
28.2933
28.2999
28.3075
28.3161
28.3258
28.3364
28.3479
28.3604
28.3737
28.3879
28.403
28.4188
28.4355
28.4529
28.4711
28.4899
28.5095
28.5297
28.5506
28.572
28.5941
28.6168
28.64
28.6637
28.6879
28.7126
28.7378
28.7634
28.7894
28.8159
28.8427
28.8699
28.8974
28.9252
28.9534
28.9818
29.0105
29.0395
29.0687
29.0981
29.1277
29.1575
29.1875
29.2176
29.2479
29.2783
29.3087
29.3393
29.37
29.4007
29.4315
29.4623
29.4932
29.524
29.5549
29.5857
29.6165
29.6473
29.6781
29.7088
29.7394
29.77
29.8004
29.8308
29.861
29.8912
29.9212
29.9511
29.9808
30.0104
30.0398
30.0691
30.0981
30.127
30.1557
30.1842
30.2125
30.2406
30.2685
30.2961
30.3235
30.3507
30.3776
30.4043
30.4307
30.4569
30.4828
30.5084
30.5337
30.5588
30.5836
30.6081
30.6323
30.6562
30.6797
30.703
30.726
30.7487
30.771
30.793
30.8147
30.8361
30.8571
30.8778
30.8982
30.9182
30.9379
30.9573
30.9763
30.9949
31.0132
31.0311
31.0487
31.066
31.0828
31.0993
31.1155
31.1313
31.1467
31.1617
31.1764
31.1907
31.2046
31.2182
31.2314
31.2442
31.2566
31.2687
31.2804
31.2916
31.3026
31.3131
31.3232
31.333
31.3424
31.3514
31.36
31.3682
31.376
31.3835
31.3906
31.3972
31.4035
31.4094
31.4149
31.42
31.4247
31.429
31.433
31.4365
31.4397
31.4424
31.4448
31.4467
31.4483
31.4495
31.4503
31.4507
44.8113
44.8031
44.7866
44.7624
44.7308
44.6925
44.6478
44.5971
44.5407
44.4789
44.4119
44.3399
44.263
44.1814
44.0953
44.0046
43.9096
43.8102
43.7067
43.5991
43.4875
43.3721
43.2528
43.1299
43.0034
42.8735
42.7403
42.6038
42.4642
42.3216
42.1762
42.028
41.8772
41.7238
41.5681
41.4101
41.2499
41.0876
40.9235
40.7575
40.5898
40.4206
40.2499
40.0779
39.9046
39.7302
39.5548
39.3785
39.2014
39.0237
38.8453
38.6666
38.4874
38.308
38.1285
37.9488
37.7693
37.5898
37.4106
37.2318
37.0533
36.8753
36.698
36.5213
36.3453
36.1703
35.9961
35.8229
35.6508
35.4798
35.3101
35.1416
34.9744
34.8087
34.6445
34.4817
34.3206
34.1611
34.0033
33.8472
33.693
33.5405
33.39
33.2414
33.0947
32.9501
32.8075
32.6669
32.5285
32.3922
32.258
32.1261
31.9963
31.8688
31.7436
31.6206
31.4999
31.3815
31.2654
31.1516
31.0402
30.9311
30.8243
30.7199
30.6179
30.5182
30.4209
30.3259
30.2332
30.143
30.055
29.9694
29.8861
29.8051
29.7264
29.65
29.5759
29.5041
29.4345
29.3671
29.302
29.2391
29.1783
29.1197
29.0633
29.0089
28.9567
28.9065
28.8584
28.8124
28.7683
28.7262
28.6861
28.6479
28.6116
28.5772
28.5447
28.514
28.485
28.4579
28.4325
28.4088
28.3868
28.3664
28.3477
28.3305
28.315
28.301
28.2885
28.2775
28.2679
28.2598
28.253
28.2477
28.2436
28.2409
28.2395
28.2393
28.2403
28.2425
28.2459
28.2504
28.256
28.2628
28.2705
28.2793
28.2891
28.2998
28.3115
28.3241
28.3376
28.352
28.3672
28.3832
28.3999
28.4175
28.4358
28.4548
28.4745
28.4948
28.5158
28.5374
28.5596
28.5824
28.6057
28.6295
28.6539
28.6787
28.704
28.7297
28.7559
28.7824
28.8093
28.8366
28.8642
28.8922
28.9205
28.949
28.9778
29.0069
29.0362
29.0657
29.0954
29.1253
29.1553
29.1855
29.2159
29.2463
29.2769
29.3076
29.3383
29.3691
29.4
29.4309
29.4618
29.4927
29.5237
29.5546
29.5855
29.6163
29.6472
29.6779
29.7086
29.7392
29.7697
29.8002
29.8305
29.8607
29.8908
29.9207
29.9505
29.9801
30.0096
30.0389
30.068
30.097
30.1257
30.1543
30.1826
30.2108
30.2387
30.2664
30.2938
30.321
30.348
30.3747
30.4012
30.4274
30.4533
30.479
30.5043
30.5294
30.5542
30.5788
30.603
30.6269
30.6505
30.6739
30.6969
30.7195
30.7419
30.764
30.7857
30.8071
30.8282
30.8489
30.8693
30.8893
30.909
30.9284
30.9474
30.9661
30.9844
31.0024
31.02
31.0372
31.0541
31.0706
31.0868
31.1026
31.118
31.1331
31.1478
31.1621
31.1761
31.1896
31.2028
31.2157
31.2281
31.2402
31.2519
31.2632
31.2741
31.2846
31.2948
31.3046
31.314
31.323
31.3316
31.3398
31.3477
31.3551
31.3622
31.3689
31.3751
31.381
31.3865
31.3916
31.3964
31.4007
31.4046
31.4082
31.4113
31.4141
31.4165
31.4184
31.42
31.4212
31.422
31.4224
44.7596
44.7514
44.7349
44.7108
44.6792
44.6409
44.5959
44.545
44.4883
44.4261
44.3587
44.2863
44.209
44.127
44.0403
43.9492
43.8537
43.754
43.6501
43.5421
43.4301
43.3142
43.1946
43.0714
42.9446
42.8143
42.6808
42.544
42.4041
42.2613
42.1156
41.9671
41.8161
41.6625
41.5065
41.3482
41.1878
41.0254
40.861
40.6948
40.527
40.3576
40.1867
40.0145
39.8411
39.6665
39.491
39.3146
39.1374
38.9595
38.781
38.6022
38.4229
38.2434
38.0638
37.8841
37.7044
37.5249
37.3457
37.1668
36.9883
36.8103
36.6329
36.4562
36.2802
36.1051
35.9309
35.7578
35.5857
35.4147
35.245
35.0765
34.9094
34.7437
34.5795
34.4169
34.2558
34.0963
33.9386
33.7826
33.6284
33.4761
33.3256
33.1771
33.0306
32.886
32.7435
32.6031
32.4648
32.3286
32.1946
32.0628
31.9332
31.8058
31.6807
31.5579
31.4373
31.3191
31.2031
31.0895
30.9783
30.8693
30.7628
30.6585
30.5567
30.4572
30.36
30.2652
30.1728
30.0827
29.9949
29.9095
29.8264
29.7456
29.6671
29.5909
29.517
29.4454
29.376
29.3088
29.2439
29.1812
29.1206
29.0622
29.006
28.9518
28.8998
28.8499
28.802
28.7561
28.7123
28.6704
28.6305
28.5925
28.5564
28.5222
28.4899
28.4594
28.4306
28.4037
28.3785
28.355
28.3332
28.313
28.2945
28.2775
28.2622
28.2484
28.2361
28.2252
28.2159
28.2079
28.2014
28.1962
28.1923
28.1898
28.1885
28.1885
28.1897
28.1921
28.1957
28.2003
28.2061
28.213
28.2209
28.2299
28.2398
28.2507
28.2626
28.2753
28.289
28.3035
28.3188
28.335
28.3519
28.3696
28.388
28.4072
28.427
28.4475
28.4686
28.4903
28.5127
28.5356
28.559
28.583
28.6074
28.6324
28.6578
28.6836
28.7099
28.7365
28.7636
28.791
28.8187
28.8468
28.8751
28.9037
28.9327
28.9618
28.9912
29.0208
29.0506
29.0806
29.1107
29.141
29.1714
29.202
29.2326
29.2634
29.2942
29.3251
29.356
29.387
29.418
29.449
29.48
29.511
29.5419
29.5729
29.6038
29.6346
29.6653
29.696
29.7266
29.7571
29.7874
29.8177
29.8478
29.8778
29.9076
29.9373
29.9668
29.9962
30.0254
30.0544
30.0832
30.1118
30.1401
30.1683
30.1963
30.224
30.2515
30.2787
30.3057
30.3325
30.359
30.3852
30.4112
30.4369
30.4623
30.4874
30.5122
30.5368
30.561
30.585
30.6086
30.632
30.655
30.6777
30.7001
30.7222
30.7439
30.7654
30.7864
30.8072
30.8276
30.8477
30.8674
30.8868
30.9058
30.9245
30.9429
30.9608
30.9785
30.9957
31.0126
31.0292
31.0453
31.0611
31.0766
31.0917
31.1064
31.1207
31.1347
31.1482
31.1615
31.1743
31.1867
31.1988
31.2105
31.2218
31.2328
31.2433
31.2535
31.2633
31.2727
31.2817
31.2903
31.2985
31.3064
31.3138
31.3209
31.3276
31.3339
31.3398
31.3453
31.3504
31.3551
31.3595
31.3634
31.3669
31.3701
31.3729
31.3752
31.3772
31.3788
31.38
31.3807
31.3811
44.7185
44.7105
44.6942
44.6703
44.6389
44.6007
44.5559
44.505
44.4482
44.3859
44.3183
44.2456
44.168
44.0856
43.9986
43.9071
43.8112
43.711
43.6067
43.4983
43.3859
43.2696
43.1496
43.0259
42.8987
42.7681
42.6341
42.497
42.3567
42.2135
42.0674
41.9186
41.7672
41.6133
41.457
41.2984
41.1377
40.9749
40.8103
40.6438
40.4757
40.306
40.1348
39.9624
39.7887
39.6139
39.4381
39.2615
39.084
38.9059
38.7273
38.5482
38.3688
38.1891
38.0093
37.8294
37.6496
37.47
37.2906
37.1115
36.9329
36.7548
36.5773
36.4004
36.2244
36.0492
35.8749
35.7017
35.5295
35.3585
35.1887
35.0202
34.8531
34.6874
34.5232
34.3605
34.1994
34.0399
33.8822
33.7263
33.5721
33.4198
33.2694
33.1209
32.9744
32.8299
32.6875
32.5471
32.4089
32.2728
32.1388
32.0071
31.8776
31.7503
31.6253
31.5026
31.3822
31.264
31.1482
31.0348
30.9236
30.8149
30.7084
30.6044
30.5026
30.4033
30.3063
30.2117
30.1194
30.0294
29.9419
29.8566
29.7737
29.6931
29.6148
29.5388
29.4651
29.3936
29.3245
29.2575
29.1928
29.1302
29.0699
29.0117
28.9557
28.9017
28.8499
28.8002
28.7525
28.7069
28.6632
28.6216
28.5819
28.5441
28.5082
28.4743
28.4421
28.4118
28.3833
28.3566
28.3316
28.3083
28.2867
28.2668
28.2485
28.2317
28.2166
28.203
28.1909
28.1803
28.1711
28.1634
28.157
28.1521
28.1484
28.1461
28.145
28.1452
28.1466
28.1492
28.1529
28.1578
28.1638
28.1709
28.179
28.1881
28.1982
28.2093
28.2214
28.2343
28.2481
28.2628
28.2783
28.2947
28.3118
28.3296
28.3482
28.3675
28.3875
28.4082
28.4295
28.4514
28.4738
28.4969
28.5205
28.5446
28.5692
28.5943
28.6199
28.6458
28.6722
28.699
28.7262
28.7538
28.7816
28.8098
28.8383
28.8671
28.8961
28.9254
28.9549
28.9846
29.0145
29.0446
29.0749
29.1053
29.1358
29.1665
29.1973
29.2281
29.259
29.29
29.3211
29.3521
29.3832
29.4143
29.4454
29.4765
29.5075
29.5386
29.5695
29.6004
29.6313
29.662
29.6927
29.7233
29.7537
29.784
29.8142
29.8443
29.8742
29.904
29.9336
29.963
29.9922
30.0213
30.0502
30.0788
30.1073
30.1355
30.1635
30.1913
30.2188
30.2462
30.2732
30.3
30.3266
30.3528
30.3789
30.4046
30.4301
30.4552
30.4801
30.5047
30.529
30.553
30.5767
30.6001
30.6232
30.6459
30.6683
30.6905
30.7122
30.7337
30.7548
30.7756
30.796
30.8161
30.8359
30.8553
30.8744
30.8931
30.9115
30.9295
30.9471
30.9644
30.9813
30.9979
31.0141
31.0299
31.0454
31.0605
31.0752
31.0896
31.1036
31.1172
31.1304
31.1433
31.1557
31.1678
31.1795
31.1909
31.2018
31.2124
31.2226
31.2324
31.2418
31.2508
31.2594
31.2677
31.2755
31.283
31.2901
31.2968
31.3031
31.309
31.3145
31.3196
31.3243
31.3287
31.3326
31.3362
31.3393
31.3421
31.3445
31.3464
31.348
31.3492
31.35
31.3504
44.6684
44.6604
44.6441
44.6203
44.589
44.5508
44.5059
44.4548
44.3978
44.3352
44.2672
44.1941
44.116
44.0332
43.9457
43.8537
43.7574
43.6567
43.5519
43.443
43.3301
43.2134
43.093
42.9689
42.8412
42.7102
42.5758
42.4383
42.2976
42.154
42.0076
41.8584
41.7067
41.5524
41.3957
41.2368
41.0758
40.9127
40.7478
40.581
40.4126
40.2426
40.0712
39.8985
39.7246
39.5496
39.3735
39.1967
39.019
38.8407
38.6619
38.4826
38.303
38.1232
37.9432
37.7632
37.5832
37.4034
37.2239
37.0447
36.866
36.6878
36.5102
36.3333
36.1571
35.9819
35.8076
35.6343
35.4621
35.291
35.1212
34.9527
34.7855
34.6198
34.4556
34.2929
34.1319
33.9724
33.8148
33.6588
33.5047
33.3525
33.2021
33.0537
32.9073
32.7629
32.6205
32.4803
32.3421
32.2061
32.0723
31.9407
31.8113
31.6842
31.5593
31.4368
31.3165
31.1985
31.0829
30.9695
30.8586
30.75
30.6437
30.5398
30.4383
30.3391
30.2423
30.1479
30.0558
29.9661
29.8787
29.7937
29.711
29.6306
29.5525
29.4767
29.4032
29.332
29.263
29.1963
29.1318
29.0695
29.0094
28.9514
28.8956
28.842
28.7904
28.7409
28.6934
28.648
28.6046
28.5632
28.5237
28.4862
28.4506
28.4169
28.385
28.3549
28.3266
28.3001
28.2754
28.2523
28.231
28.2113
28.1932
28.1767
28.1618
28.1484
28.1366
28.1262
28.1173
28.1097
28.1036
28.0989
28.0954
28.0933
28.0925
28.0929
28.0945
28.0973
28.1013
28.1064
28.1126
28.1198
28.1282
28.1375
28.1478
28.1591
28.1713
28.1845
28.1985