/*--------------------------------*- C++ -*----------------------------------*\
| =========                 |                                                 |
| \\      /  F ield         | OpenFOAM: The Open Source CFD Toolbox           |
|  \\    /   O peration     | Version:  2212                                  |
|   \\  /    A nd           | Website:  www.openfoam.com                      |
|    \\/     M anipulation  |                                                 |
\*---------------------------------------------------------------------------*/
FoamFile
{
    version     2.0;
    format      ascii;
    arch        "LSB;label=32;scalar=64";
    class       volScalarField;
    location    "130";
    object      p_rgh;
}
// * * * * * * * * * * * * * * * * * * * * * * * * * * * * * * * * * * * * * //

dimensions      [1 -1 -2 0 0 0 0];

internalField   nonuniform List<scalar> 
204800
(
-9.28917
-9.284
-9.27325
-9.25717
-9.23564
-9.20875
-9.17647
-9.13884
-9.09588
-9.04761
-8.99407
-8.93531
-8.87138
-8.80233
-8.72822
-8.6491
-8.56503
-8.47605
-8.38222
-8.28358
-8.18021
-8.07216
-7.95948
-7.84223
-7.72046
-7.59423
-7.4636
-7.32862
-7.18933
-7.04579
-6.89805
-6.74617
-6.59017
-6.43013
-6.26607
-6.09806
-5.92613
-5.75034
-5.57074
-5.38738
-5.20031
-5.00958
-4.81525
-4.61738
-4.41602
-4.21124
-4.00309
-3.79165
-3.57697
-3.35913
-3.13819
-2.91423
-2.68732
-2.45752
-2.22493
-1.98961
-1.75164
-1.51111
-1.26809
-1.02266
-0.774918
-0.524938
-0.272808
-0.0186134
0.237559
0.495623
0.755489
1.01707
1.28028
1.54503
1.81122
2.07878
2.34761
2.61763
2.88874
3.16086
3.43391
3.7078
3.98243
4.25774
4.53363
4.81002
5.08683
5.36398
5.64139
5.91898
6.19667
6.4744
6.75208
7.02964
7.30701
7.58412
7.86091
8.1373
8.41323
8.68864
8.96346
9.23763
9.51111
9.78382
10.0557
10.3267
10.5968
10.866
11.1341
11.4011
11.667
11.9318
12.1953
12.4577
12.7187
12.9784
13.2368
13.4938
13.7493
14.0034
14.256
14.5071
14.7567
15.0047
15.2511
15.4959
15.7391
15.9806
16.2204
16.4586
16.695
16.9297
17.1626
17.3938
17.6233
17.8509
18.0768
18.3009
18.5231
18.7435
18.9622
19.1789
19.3939
19.607
19.8183
20.0277
20.2352
20.4409
20.6448
20.8468
21.047
21.2453
21.4417
21.6363
21.8291
22.02
22.209
22.3963
22.5817
22.7653
22.947
23.1269
23.3051
23.4814
23.6559
23.8286
23.9996
24.1688
24.3362
24.5018
24.6657
24.8279
24.9883
25.147
25.3039
25.4592
25.6128
25.7647
25.9149
26.0634
26.2103
26.3555
26.4991
26.6411
26.7814
26.9202
27.0573
27.1929
27.3269
27.4593
27.5902
27.7196
27.8474
27.9737
28.0985
28.2218
28.3436
28.4639
28.5828
28.7002
28.8162
28.9308
29.0439
29.1557
29.266
29.375
29.4826
29.5888
29.6937
29.7972
29.8994
30.0003
30.0999
30.1982
30.2952
30.3909
30.4854
30.5786
30.6706
30.7613
30.8508
30.9391
31.0262
31.1121
31.1969
31.2804
31.3628
31.444
31.5241
31.6031
31.6809
31.7577
31.8333
31.9078
31.9813
32.0536
32.1249
32.1952
32.2643
32.3325
32.3996
32.4657
32.5307
32.5948
32.6578
32.7199
32.781
32.8411
32.9002
32.9584
33.0156
33.0719
33.1272
33.1816
33.2351
33.2876
33.3392
33.39
33.4398
33.4888
33.5368
33.584
33.6303
33.6758
33.7203
33.7641
33.8069
33.849
33.8902
33.9305
33.9701
34.0088
34.0467
34.0838
34.1201
34.1556
34.1903
34.2242
34.2573
34.2896
34.3211
34.3519
34.3819
34.4112
34.4396
34.4674
34.4943
34.5205
34.546
34.5707
34.5947
34.6179
34.6404
34.6622
34.6833
34.7036
34.7232
34.742
34.7602
34.7776
34.7943
34.8103
34.8256
34.8402
34.8541
34.8673
34.8798
34.8915
34.9026
34.913
34.9227
34.9316
34.9399
34.9475
34.9544
34.9606
34.9661
34.971
34.9751
34.9785
34.9813
34.9834
34.9847
34.9854
-9.23777
-9.23267
-9.22225
-9.20667
-9.18584
-9.15983
-9.1286
-9.0922
-9.05063
-9.00392
-8.95207
-8.89511
-8.83307
-8.76597
-8.69385
-8.61672
-8.53464
-8.44763
-8.35573
-8.25898
-8.15742
-8.05109
-7.94005
-7.82433
-7.704
-7.57909
-7.44966
-7.31577
-7.17747
-7.03482
-6.88787
-6.73668
-6.58131
-6.42181
-6.25825
-6.09068
-5.91915
-5.74372
-5.56446
-5.38141
-5.19465
-5.00421
-4.81017
-4.61259
-4.41152
-4.20702
-3.99917
-3.78803
-3.57366
-3.35613
-3.13551
-2.91187
-2.68529
-2.45583
-2.22358
-1.98861
-1.751
-1.51083
-1.26819
-1.02314
-0.77578
-0.52619
-0.274455
-0.0206611
0.235106
0.492758
0.752208
1.01337
1.27615
1.54047
1.80623
2.07335
2.34174
2.61131
2.88197
3.15364
3.42623
3.69965
3.97383
4.24867
4.52409
4.8
5.07634
5.35301
5.62994
5.90706
6.18427
6.46151
6.7387
7.01578
7.29266
7.56929
7.84558
8.12148
8.39692
8.67184
8.94617
9.21985
9.49283
9.76505
10.0365
10.307
10.5766
10.8452
11.1128
11.3794
11.6448
11.9091
12.1722
12.434
12.6946
12.9538
13.2117
13.4682
13.7233
13.9769
14.229
14.4797
14.7288
14.9763
15.2222
15.4666
15.7093
15.9503
16.1897
16.4274
16.6633
16.8976
17.1301
17.3609
17.5899
17.8171
18.0425
18.2661
18.488
18.708
18.9261
19.1425
19.357
19.5697
19.7806
19.9896
20.1967
20.402
20.6055
20.8071
21.0069
21.2048
21.4008
21.595
21.7874
21.978
22.1666
22.3535
22.5385
22.7218
22.9031
23.0827
23.2605
23.4365
23.6106
23.783
23.9536
24.1225
24.2895
24.4549
24.6184
24.7802
24.9403
25.0987
25.2554
25.4103
25.5636
25.7152
25.8651
26.0133
26.1599
26.3048
26.4481
26.5898
26.7299
26.8683
27.0052
27.1405
27.2742
27.4064
27.537
27.6661
27.7937
27.9197
28.0442
28.1673
28.2888
28.4089
28.5276
28.6448
28.7605
28.8748
28.9878
29.0993
29.2094
29.3181
29.4255
29.5315
29.6362
29.7395
29.8415
29.9422
30.0416
30.1397
30.2365
30.332
30.4263
30.5193
30.6111
30.7016
30.7909
30.8791
30.966
31.0517
31.1363
31.2196
31.3019
31.3829
31.4629
31.5417
31.6193
31.6959
31.7714
31.8458
31.919
31.9913
32.0624
32.1325
32.2015
32.2695
32.3365
32.4024
32.4674
32.5313
32.5942
32.6562
32.7171
32.7771
32.8361
32.8941
32.9512
33.0074
33.0626
33.1169
33.1702
33.2227
33.2742
33.3248
33.3746
33.4234
33.4714
33.5185
33.5647
33.61
33.6545
33.6982
33.7409
33.7829
33.824
33.8643
33.9038
33.9424
33.9802
34.0172
34.0534
34.0889
34.1235
34.1573
34.1903
34.2226
34.2541
34.2848
34.3147
34.3439
34.3723
34.4
34.4269
34.4531
34.4785
34.5031
34.5271
34.5503
34.5727
34.5944
34.6154
34.6357
34.6553
34.6741
34.6922
34.7096
34.7263
34.7423
34.7575
34.7721
34.786
34.7991
34.8115
34.8233
34.8343
34.8447
34.8544
34.8633
34.8716
34.8792
34.886
34.8922
34.8977
34.9025
34.9067
34.9101
34.9129
34.9149
34.9163
34.917
-9.24205
-9.23694
-9.22658
-9.21107
-9.19033
-9.16444
-9.13336
-9.09713
-9.05575
-9.00924
-8.95761
-8.90089
-8.8391
-8.77225
-8.70039
-8.62353
-8.54171
-8.45496
-8.36331
-8.2668
-8.16547
-8.05936
-7.94851
-7.83296
-7.71277
-7.58798
-7.45865
-7.32483
-7.18656
-7.04392
-6.89695
-6.74572
-6.59028
-6.4307
-6.26703
-6.09932
-5.92765
-5.75207
-5.57264
-5.38942
-5.20248
-5.01186
-4.81764
-4.61987
-4.41861
-4.21394
-4.00591
-3.79459
-3.58004
-3.36234
-3.14156
-2.91776
-2.69102
-2.46142
-2.22902
-1.99391
-1.75616
-1.51586
-1.27308
-1.02791
-0.780422
-0.530713
-0.278862
-0.0249565
0.230918
0.488674
0.748225
1.00948
1.27236
1.53676
1.80261
2.06981
2.33828
2.60792
2.87866
3.1504
3.42305
3.69654
3.97077
4.24566
4.52113
4.7971
5.07348
5.35019
5.62716
5.9043
6.18154
6.45881
6.73603
7.01313
7.29003
7.56667
7.84297
8.11888
8.39433
8.66925
8.94358
9.21726
9.49024
9.76245
10.0338
10.3044
10.574
10.8426
11.1102
11.3767
11.6421
11.9063
12.1694
12.4312
12.6917
12.9509
13.2088
13.4652
13.7203
13.9738
14.2259
14.4765
14.7256
14.9731
15.2189
15.4632
15.7059
15.9469
16.1862
16.4238
16.6597
16.8939
17.1264
17.3571
17.586
17.8132
18.0385
18.2621
18.4838
18.7038
18.9219
19.1382
19.3527
19.5653
19.7761
19.985
20.1921
20.3973
20.6007
20.8022
21.0019
21.1998
21.3958
21.5899
21.7822
21.9727
22.1613
22.3481
22.533
22.7162
22.8975
23.077
23.2547
23.4306
23.6047
23.777
23.9476
24.1163
24.2833
24.4486
24.6121
24.7738
24.9338
25.0921
25.2487
25.4036
25.5568
25.7083
25.8582
26.0063
26.1528
26.2977
26.441
26.5826
26.7226
26.861
26.9978
27.133
27.2667
27.3988
27.5293
27.6584
27.7859
27.9118
28.0363
28.1593
28.2808
28.4008
28.5194
28.6366
28.7522
28.8665
28.9794
29.0908
29.2009
29.3096
29.4169
29.5229
29.6275
29.7307
29.8327
29.9333
30.0327
30.1307
30.2274
30.3229
30.4172
30.5101
30.6019
30.6924
30.7816
30.8697
30.9566
31.0423
31.1268
31.2101
31.2923
31.3733
31.4532
31.532
31.6096
31.6861
31.7616
31.8359
31.9092
31.9813
32.0524
32.1225
32.1915
32.2595
32.3264
32.3923
32.4572
32.5211
32.584
32.6459
32.7068
32.7667
32.8257
32.8837
32.9408
32.9969
33.0521
33.1064
33.1597
33.2121
33.2636
33.3142
33.3639
33.4127
33.4607
33.5077
33.5539
33.5992
33.6437
33.6873
33.7301
33.772
33.8131
33.8534
33.8928
33.9314
33.9692
34.0062
34.0424
34.0778
34.1124
34.1462
34.1792
34.2115
34.2429
34.2736
34.3036
34.3327
34.3611
34.3888
34.4157
34.4418
34.4672
34.4919
34.5158
34.5389
34.5614
34.5831
34.6041
34.6244
34.6439
34.6627
34.6808
34.6982
34.7149
34.7309
34.7461
34.7607
34.7745
34.7876
34.8001
34.8118
34.8229
34.8332
34.8429
34.8518
34.8601
34.8677
34.8745
34.8807
34.8862
34.891
34.8952
34.8986
34.9013
34.9034
34.9048
34.9055
-9.21075
-9.20574
-9.19565
-9.18055
-9.16038
-9.13519
-9.10495
-9.0697
-9.02941
-8.98412
-8.93381
-8.8785
-8.81819
-8.75289
-8.68261
-8.60736
-8.52716
-8.44203
-8.35198
-8.25704
-8.15724
-8.0526
-7.94315
-7.82894
-7.70999
-7.58635
-7.45808
-7.32521
-7.18781
-7.04592
-6.89962
-6.74896
-6.594
-6.43481
-6.27146
-6.10402
-5.93255
-5.75712
-5.57779
-5.39465
-5.20774
-5.01715
-4.82293
-4.62516
-4.4239
-4.21921
-4.01117
-3.79985
-3.5853
-3.36761
-3.14684
-2.92306
-2.69635
-2.46678
-2.23443
-1.99937
-1.76169
-1.52146
-1.27876
-1.03367
-0.786286
-0.536682
-0.284945
-0.0311603
0.224585
0.482206
0.741612
1.00272
1.26544
1.52968
1.79535
2.06237
2.33065
2.60011
2.87064
3.14217
3.41462
3.68788
3.96189
4.23655
4.51179
4.78751
5.06365
5.34011
5.61682
5.8937
6.17068
6.44768
6.72462
7.00143
7.27805
7.5544
7.83041
8.10602
8.38117
8.65578
8.92981
9.20318
9.47583
9.74773
10.0188
10.289
10.5583
10.8265
11.0938
11.36
11.6251
11.889
12.1517
12.4131
12.6733
12.9322
13.1897
13.4458
13.7005
13.9537
14.2055
14.4557
14.7044
14.9515
15.1971
15.441
15.6833
15.9239
16.1629
16.4002
16.6357
16.8696
17.1017
17.332
17.5606
17.7874
18.0124
18.2356
18.457
18.6766
18.8944
19.1103
19.3244
19.5367
19.7472
19.9558
20.1625
20.3674
20.5705
20.7717
20.971
21.1685
21.3642
21.558
21.75
21.9401
22.1284
22.3149
22.4995
22.6823
22.8633
23.0425
23.2199
23.3955
23.5693
23.7413
23.9116
24.08
24.2467
24.4117
24.5749
24.7364
24.8961
25.0541
25.2104
25.365
25.5179
25.6692
25.8187
25.9666
26.1129
26.2575
26.4005
26.5418
26.6816
26.8197
26.9563
27.0913
27.2247
27.3565
27.4868
27.6156
27.7429
27.8686
27.9929
28.1156
28.2369
28.3567
28.4751
28.592
28.7075
28.8215
28.9342
29.0454
29.1553
29.2637
29.3708
29.4766
29.581
29.6841
29.7858
29.8863
29.9854
30.0833
30.1798
30.2751
30.3692
30.462
30.5535
30.6439
30.733
30.8209
30.9076
30.9931
31.0774
31.1606
31.2426
31.3235
31.4032
31.4818
31.5593
31.6357
31.711
31.7852
31.8583
31.9303
32.0013
32.0712
32.1401
32.2079
32.2747
32.3405
32.4053
32.469
32.5318
32.5936
32.6544
32.7142
32.773
32.831
32.8879
32.9439
32.999
33.0531
33.1064
33.1587
33.2101
33.2606
33.3102
33.3589
33.4067
33.4537
33.4998
33.545
33.5894
33.6329
33.6756
33.7175
33.7585
33.7987
33.838
33.8766
33.9143
33.9512
33.9873
34.0227
34.0572
34.0909
34.1239
34.1561
34.1875
34.2181
34.248
34.2771
34.3054
34.333
34.3599
34.3859
34.4113
34.4359
34.4598
34.4829
34.5053
34.527
34.5479
34.5681
34.5876
34.6064
34.6245
34.6418
34.6585
34.6744
34.6896
34.7042
34.718
34.7311
34.7435
34.7552
34.7663
34.7766
34.7862
34.7952
34.8034
34.811
34.8178
34.824
34.8295
34.8343
34.8384
34.8418
34.8446
34.8466
34.848
34.8487
-9.21451
-9.20953
-9.19953
-9.18456
-9.16457
-9.13959
-9.10962
-9.07466
-9.03472
-8.9898
-8.93991
-8.88504
-8.82521
-8.76042
-8.69068
-8.616
-8.53638
-8.45185
-8.36241
-8.26809
-8.16891
-8.06487
-7.95602
-7.84238
-7.72398
-7.60086
-7.47306
-7.34063
-7.2036
-7.06204
-6.916
-6.76554
-6.61073
-6.45162
-6.28829
-6.12081
-5.94924
-5.77367
-5.59415
-5.41078
-5.22361
-5.03273
-4.8382
-4.64009
-4.43849
-4.23345
-4.02506
-3.81337
-3.59847
-3.38042
-3.1593
-2.93518
-2.70813
-2.47823
-2.24555
-2.01018
-1.77218
-1.53165
-1.28866
-1.04328
-0.795618
-0.545742
-0.293739
-0.0396962
0.216301
0.474164
0.733808
0.995143
1.25808
1.52254
1.78842
2.05565
2.32412
2.59376
2.86447
3.13618
3.40879
3.68222
3.95638
4.23119
4.50656
4.78242
5.05868
5.33526
5.61208
5.88907
6.16615
6.44324
6.72026
6.99716
7.27385
7.55027
7.82634
8.10201
8.37721
8.65187
8.92593
9.19933
9.47202
9.74393
10.015
10.2852
10.5545
10.8228
11.09
11.3562
11.6213
11.8852
12.1479
12.4093
12.6694
12.9283
13.1857
13.4418
13.6964
13.9496
14.2013
14.4515
14.7001
14.9472
15.1927
15.4365
15.6787
15.9193
16.1582
16.3954
16.6309
16.8646
17.0966
17.3269
17.5554
17.7821
18.007
18.2301
18.4514
18.6709
18.8886
19.1044
19.3184
19.5306
19.7409
19.9494
20.156
20.3608
20.5638
20.7649
20.9641
21.1615
21.357
21.5507
21.7426
21.9326
22.1208
22.3072
22.4917
22.6744
22.8553
23.0343
23.2116
23.3871
23.5608
23.7327
23.9028
24.0711
24.2377
24.4025
24.5656
24.727
24.8866
25.0445
25.2007
25.3552
25.508
25.6591
25.8086
25.9563
26.1025
26.247
26.3898
26.5311
26.6707
26.8087
26.9452
27.0801
27.2134
27.3451
27.4753
27.604
27.7312
27.8568
27.9809
28.1036
28.2248
28.3445
28.4627
28.5795
28.6949
28.8089
28.9214
29.0326
29.1423
29.2507
29.3577
29.4634
29.5677
29.6707
29.7724
29.8727
29.9718
30.0695
30.166
30.2612
30.3552
30.4479
30.5394
30.6296
30.7187
30.8065
30.8931
30.9786
31.0628
31.1459
31.2279
31.3087
31.3883
31.4669
31.5443
31.6206
31.6958
31.7699
31.843
31.9149
31.9858
32.0557
32.1245
32.1922
32.259
32.3247
32.3894
32.4531
32.5158
32.5775
32.6383
32.6981
32.7569
32.8147
32.8716
32.9276
32.9826
33.0367
33.0899
33.1421
33.1935
33.2439
33.2935
33.3422
33.39
33.4369
33.4829
33.5281
33.5725
33.6159
33.6586
33.7004
33.7414
33.7815
33.8208
33.8593
33.897
33.9339
33.97
34.0053
34.0398
34.0735
34.1064
34.1386
34.1699
34.2005
34.2304
34.2595
34.2878
34.3153
34.3421
34.3682
34.3935
34.4181
34.442
34.4651
34.4874
34.5091
34.53
34.5502
34.5697
34.5885
34.6065
34.6239
34.6405
34.6564
34.6716
34.6861
34.6999
34.713
34.7254
34.7371
34.7482
34.7585
34.7681
34.777
34.7853
34.7928
34.7997
34.8058
34.8113
34.8161
34.8202
34.8237
34.8264
34.8284
34.8298
34.8305
-9.19263
-9.18776
-9.17801
-9.16338
-9.14388
-9.1195
-9.09025
-9.05612
-9.01712
-8.97323
-8.92447
-8.87082
-8.81228
-8.74885
-8.68053
-8.60731
-8.5292
-8.4462
-8.35831
-8.26553
-8.16788
-8.06537
-7.95801
-7.84581
-7.72881
-7.60702
-7.48048
-7.34922
-7.21328
-7.07271
-6.92756
-6.77789
-6.62376
-6.46523
-6.30238
-6.13527
-5.96398
-5.78859
-5.60919
-5.42584
-5.23864
-5.04767
-4.853
-4.65473
-4.45292
-4.24765
-4.03901
-3.82708
-3.61191
-3.39361
-3.17223
-2.94785
-2.72056
-2.49042
-2.25752
-2.02193
-1.78373
-1.54299
-1.29981
-1.05427
-0.806434
-0.556402
-0.304255
-0.0500779
0.206043
0.46402
0.723768
0.985197
1.24822
1.51275
1.7787
2.04597
2.31449
2.58417
2.85491
3.12663
3.39925
3.67268
3.94682
4.22161
4.49696
4.77278
5.04899
5.32552
5.60228
5.8792
6.1562
6.4332
6.71013
6.98693
7.26351
7.53981
7.81576
8.0913
8.36635
8.64087
8.91478
9.18802
9.46054
9.73229
10.0032
10.2732
10.5423
10.8104
11.0775
11.3434
11.6083
11.872
12.1344
12.3956
12.6555
12.9141
13.1714
13.4272
13.6816
13.9345
14.186
14.4359
14.6843
14.9311
15.1763
15.4199
15.6618
15.9021
16.1407
16.3776
16.6128
16.8463
17.078
17.308
17.5362
17.7626
17.9873
18.2101
18.4311
18.6503
18.8677
19.0832
19.297
19.5088
19.7189
19.9271
20.1334
20.3379
20.5406
20.7414
20.9403
21.1374
21.3327
21.5261
21.7176
21.9074
22.0953
22.2813
22.4656
22.648
22.8286
23.0074
23.1844
23.3596
23.533
23.7046
23.8744
24.0425
24.2088
24.3734
24.5362
24.6973
24.8566
25.0143
25.1702
25.3244
25.477
25.6278
25.777
25.9246
26.0704
26.2147
26.3573
26.4983
26.6377
26.7755
26.9117
27.0463
27.1794
27.3109
27.4409
27.5693
27.6963
27.8217
27.9456
28.068
28.189
28.3085
28.4265
28.5431
28.6583
28.772
28.8844
28.9953
29.1049
29.2131
29.3199
29.4253
29.5295
29.6323
29.7337
29.8339
29.9328
30.0304
30.1267
30.2217
30.3155
30.408
30.4993
30.5894
30.6782
30.7659
30.8524
30.9376
31.0218
31.1047
31.1865
31.2671
31.3466
31.425
31.5023
31.5784
31.6535
31.7275
31.8004
31.8722
31.943
32.0127
32.0814
32.149
32.2156
32.2812
32.3458
32.4094
32.472
32.5336
32.5942
32.6538
32.7125
32.7703
32.827
32.8829
32.9378
32.9918
33.0449
33.097
33.1483
33.1986
33.2481
33.2967
33.3444
33.3912
33.4372
33.4823
33.5265
33.5699
33.6125
33.6542
33.6951
33.7351
33.7744
33.8128
33.8504
33.8872
33.9233
33.9585
33.9929
34.0266
34.0594
34.0915
34.1228
34.1534
34.1831
34.2121
34.2404
34.2679
34.2947
34.3207
34.346
34.3705
34.3943
34.4174
34.4397
34.4613
34.4822
34.5023
34.5218
34.5405
34.5585
34.5758
34.5924
34.6083
34.6235
34.638
34.6518
34.6648
34.6772
34.6889
34.6999
34.7102
34.7198
34.7287
34.7369
34.7444
34.7513
34.7574
34.7629
34.7677
34.7718
34.7752
34.778
34.78
34.7814
34.7821
-9.19238
-9.18756
-9.17792
-9.16346
-9.14419
-9.12009
-9.09118
-9.05744
-9.01888
-8.9755
-8.92728
-8.87424
-8.81636
-8.75363
-8.68607
-8.61365
-8.53638
-8.45427
-8.3673
-8.27548
-8.17881
-8.0773
-7.97095
-7.85977
-7.74377
-7.62298
-7.4974
-7.36707
-7.23202
-7.09228
-6.9479
-6.79892
-6.64539
-6.48738
-6.32495
-6.15816
-5.9871
-5.81185
-5.63248
-5.44909
-5.26176
-5.07057
-4.87563
-4.67701
-4.47481
-4.26912
-4.06002
-3.8476
-3.63193
-3.41311
-3.19121
-2.96631
-2.7385
-2.50784
-2.27443
-2.03833
-1.79964
-1.55842
-1.31476
-1.06875
-0.820464
-0.569987
-0.317406
-0.0628048
0.193729
0.45211
0.71225
0.974061
1.23746
1.50235
1.76865
2.03626
2.30511
2.57511
2.84616
3.11818
3.39109
3.66479
3.93921
4.21426
4.48985
4.76591
5.04236
5.3191
5.59607
5.87319
6.15038
6.42756
6.70467
6.98162
7.25835
7.5348
7.81088
8.08654
8.36171
8.63634
8.91034
9.18368
9.45628
9.7281
9.99907
10.2692
10.5383
10.8064
11.0735
11.3395
11.6044
11.8681
12.1305
12.3917
12.6517
12.9102
13.1674
13.4232
13.6776
13.9305
14.1819
14.4318
14.6801
14.9268
15.172
15.4155
15.6574
15.8976
16.1361
16.3729
16.6081
16.8414
17.0731
17.3029
17.531
17.7573
17.9819
18.2046
18.4255
18.6446
18.8618
19.0772
19.2908
19.5026
19.7125
19.9205
20.1268
20.3311
20.5336
20.7343
20.9331
21.13
21.3251
21.5184
21.7098
21.8994
22.0872
22.2731
22.4572
22.6394
22.8199
22.9985
23.1754
23.3504
23.5237
23.6951
23.8648
24.0327
24.1989
24.3633
24.526
24.6869
24.8461
25.0036
25.1594
25.3134
25.4658
25.6165
25.7656
25.913
26.0587
26.2028
26.3453
26.4861
26.6254
26.763
26.8991
27.0336
27.1665
27.2979
27.4277
27.556
27.6828
27.8081
27.9318
28.0541
28.175
28.2943
28.4122
28.5287
28.6437
28.7573
28.8696
28.9804
29.0898
29.1979
29.3046
29.4099
29.5139
29.6166
29.7179
29.818
29.9167
30.0142
30.1104
30.2053
30.299
30.3914
30.4826
30.5725
30.6613
30.7489
30.8352
30.9204
31.0044
31.0872
31.1689
31.2495
31.3289
31.4072
31.4843
31.5604
31.6354
31.7093
31.7821
31.8538
31.9245
31.9941
32.0627
32.1302
32.1968
32.2623
32.3268
32.3903
32.4528
32.5143
32.5749
32.6344
32.693
32.7507
32.8074
32.8632
32.918
32.972
33.025
33.0771
33.1282
33.1785
33.2279
33.2765
33.3241
33.3709
33.4168
33.4618
33.506
33.5493
33.5918
33.6335
33.6743
33.7144
33.7535
33.7919
33.8295
33.8663
33.9022
33.9374
33.9718
34.0054
34.0382
34.0702
34.1015
34.132
34.1618
34.1907
34.219
34.2464
34.2732
34.2991
34.3244
34.3489
34.3726
34.3957
34.418
34.4396
34.4604
34.4806
34.5
34.5187
34.5367
34.5539
34.5705
34.5864
34.6015
34.616
34.6298
34.6428
34.6552
34.6669
34.6778
34.6881
34.6977
34.7066
34.7148
34.7223
34.7292
34.7353
34.7408
34.7456
34.7497
34.7531
34.7558
34.7578
34.7592
34.7599
-9.17357
-9.16885
-9.15942
-9.14528
-9.12642
-9.10285
-9.07456
-9.04155
-9.00381
-8.96134
-8.91413
-8.86217
-8.80545
-8.74396
-8.6777
-8.60666
-8.53082
-8.45018
-8.36473
-8.27446
-8.17937
-8.07945
-7.97471
-7.86513
-7.75073
-7.6315
-7.50747
-7.37864
-7.24503
-7.10666
-6.96358
-6.81581
-6.6634
-6.50639
-6.34486
-6.17886
-6.00846
-5.83374
-5.65479
-5.47169
-5.28454
-5.09343
-4.89846
-4.69973
-4.49733
-4.29137
-4.08194
-3.86915
-3.65307
-3.43381
-3.21146
-2.98609
-2.7578
-2.52668
-2.29279
-2.05623
-1.81708
-1.57541
-1.33132
-1.08489
-0.836187
-0.585311
-0.332344
-0.0773695
0.179525
0.438253
0.698728
0.960861
1.22457
1.48975
1.75634
2.02423
2.29333
2.56358
2.83486
3.1071
3.38022
3.65412
3.92873
4.20395
4.4797
4.75591
5.03249
5.30936
5.58645
5.86367
6.14095
6.41821
6.69539
6.9724
7.24918
7.52566
7.80177
8.07745
8.35263
8.62724
8.90124
9.17455
9.44712
9.71889
9.98982
10.2598
10.5289
10.797
11.064
11.3299
11.5946
11.8582
12.1206
12.3817
12.6414
12.8999
13.1569
13.4126
13.6668
13.9195
14.1707
14.4204
14.6686
14.9151
15.1601
15.4034
15.6451
15.8851
16.1234
16.36
16.5949
16.8281
17.0595
17.2891
17.517
17.7431
17.9674
18.1898
18.4105
18.6293
18.8463
19.0615
19.2749
19.4864
19.696
19.9038
20.1098
20.3139
20.5161
20.7165
20.915
21.1117
21.3066
21.4996
21.6908
21.8801
22.0676
22.2532
22.437
22.619
22.7992
22.9776
23.1542
23.329
23.5019
23.6731
23.8426
24.0102
24.1761
24.3403
24.5027
24.6634
24.8223
24.9795
25.1351
25.2889
25.441
25.5915
25.7403
25.8874
26.0329
26.1768
26.319
26.4596
26.5986
26.736
26.8718
27.0061
27.1388
27.2699
27.3995
27.5276
27.6542
27.7792
27.9028
28.0249
28.1455
28.2646
28.3823
28.4986
28.6134
28.7268
28.8388
28.9494
29.0586
29.1665
29.273
29.3781
29.482
29.5844
29.6856
29.7855
29.884
29.9813
30.0773
30.1721
30.2655
30.3578
30.4488
30.5386
30.6272
30.7146
30.8008
30.8858
30.9696
31.0523
31.1338
31.2142
31.2935
31.3716
31.4486
31.5245
31.5994
31.6731
31.7458
31.8174
31.8879
31.9574
32.0258
32.0933
32.1596
32.225
32.2894
32.3528
32.4152
32.4766
32.537
32.5964
32.6549
32.7125
32.7691
32.8247
32.8795
32.9333
32.9862
33.0382
33.0893
33.1394
33.1888
33.2372
33.2847
33.3314
33.3772
33.4221
33.4662
33.5095
33.5519
33.5935
33.6343
33.6742
33.7133
33.7516
33.7891
33.8258
33.8617
33.8968
33.9311
33.9646
33.9974
34.0293
34.0606
34.091
34.1207
34.1496
34.1778
34.2052
34.2318
34.2578
34.283
34.3074
34.3311
34.3541
34.3764
34.3979
34.4187
34.4388
34.4582
34.4769
34.4948
34.5121
34.5286
34.5444
34.5596
34.574
34.5877
34.6007
34.6131
34.6247
34.6357
34.6459
34.6555
34.6644
34.6726
34.6801
34.6869
34.6931
34.6985
34.7033
34.7074
34.7108
34.7135
34.7155
34.7169
34.7176
-9.16785
-9.16319
-9.15388
-9.13993
-9.12132
-9.09806
-9.07014
-9.03756
-9.00032
-8.9584
-8.9118
-8.86052
-8.80453
-8.74385
-8.67845
-8.60832
-8.53346
-8.45385
-8.36949
-8.28037
-8.18647
-8.08778
-7.98431
-7.87603
-7.76296
-7.64508
-7.52239
-7.39491
-7.26263
-7.12558
-6.98376
-6.83721
-6.68596
-6.53004
-6.36949
-6.20438
-6.03477
-5.86072
-5.68231
-5.49963
-5.31276
-5.12181
-4.92688
-4.72807
-4.52548
-4.31923
-4.10943
-3.89618
-3.67959
-3.45977
-3.2368
-3.0108
-2.78186
-2.55006
-2.3155
-2.07826
-1.83843
-1.59609
-1.35134
-1.10425
-0.854915
-0.603412
-0.349829
-0.0942523
0.163231
0.422535
0.683572
0.946254
1.21049
1.4762
1.74329
2.01168
2.28127
2.55197
2.82371
3.0964
3.36994
3.64425
3.91926
4.19486
4.47099
4.74756
5.02449
5.30169
5.5791
5.85663
6.1342
6.41174
6.68919
6.96646
7.24348
7.52019
7.79652
8.07241
8.34778
8.62258
8.89675
9.17022
9.44294
9.71485
9.9859
10.256
10.5252
10.7934
11.0605
11.3264
11.5913
11.8549
12.1173
12.3784
12.6382
12.8967
13.1537
13.4094
13.6636
13.9163
14.1675
14.4172
14.6653
14.9118
15.1567
15.4
15.6416
15.8815
16.1198
16.3563
16.5911
16.8242
17.0555
17.285
17.5128
17.7388
17.9629
18.1853
18.4058
18.6245
18.8414
19.0564
19.2696
19.481
19.6905
19.8981
20.1039
20.3079
20.51
20.7102
20.9086
21.1051
21.2998
21.4927
21.6836
21.8728
22.0601
22.2456
22.4292
22.6111
22.7911
22.9693
23.1457
23.3203
23.4931
23.6641
23.8334
24.0008
24.1666
24.3305
24.4928
24.6532
24.812
24.9691
25.1244
25.278
25.43
25.5803
25.7289
25.8759
26.0212
26.1649
26.3069
26.4473
26.5862
26.7234
26.8591
26.9931
27.1257
27.2566
27.3861
27.514
27.6404
27.7653
27.8887
28.0106
28.131
28.25
28.3675
28.4836
28.5983
28.7115
28.8234
28.9339
29.0429
29.1506
29.257
29.362
29.4656
29.568
29.669
29.7687
29.8671
29.9643
30.0601
30.1547
30.2481
30.3402
30.4311
30.5208
30.6092
30.6965
30.7825
30.8674
30.9511
31.0337
31.1151
31.1954
31.2745
31.3525
31.4294
31.5052
31.5799
31.6535
31.7261
31.7976
31.868
31.9374
32.0057
32.0731
32.1394
32.2046
32.2689
32.3322
32.3945
32.4558
32.5161
32.5755
32.6339
32.6913
32.7478
32.8034
32.8581
32.9118
32.9646
33.0165
33.0675
33.1176
33.1668
33.2152
33.2627
33.3093
33.355
33.3999
33.4439
33.4871
33.5294
33.571
33.6116
33.6515
33.6906
33.7288
33.7662
33.8029
33.8387
33.8737
33.908
33.9415
33.9742
34.0061
34.0373
34.0677
34.0973
34.1262
34.1543
34.1817
34.2083
34.2342
34.2593
34.2837
34.3074
34.3304
34.3526
34.3741
34.3949
34.4149
34.4343
34.4529
34.4708
34.488
34.5046
34.5204
34.5355
34.5499
34.5636
34.5766
34.5889
34.6005
34.6115
34.6217
34.6313
34.6401
34.6483
34.6558
34.6626
34.6687
34.6742
34.679
34.683
34.6864
34.6892
34.6912
34.6926
34.6932
-9.14864
-9.14406
-9.13495
-9.12127
-9.10303
-9.08023
-9.05286
-9.02091
-8.98439
-8.94327
-8.89756
-8.84724
-8.79231
-8.73274
-8.66853
-8.59966
-8.52612
-8.44789
-8.36497
-8.27734
-8.18498
-8.08788
-7.98602
-7.8794
-7.768
-7.65181
-7.53083
-7.40505
-7.27447
-7.13909
-6.99892
-6.85397
-6.70427
-6.54983
-6.39069
-6.22689
-6.05848
-5.88552
-5.70807
-5.52622
-5.34004
-5.14964
-4.9551
-4.75654
-4.55407
-4.34781
-4.13787
-3.92437
-3.70744
-3.48719
-3.26373
-3.03718
-2.80764
-2.57522
-2.34001
-2.10212
-1.86162
-1.61863
-1.37322
-1.12548
-0.875498
-0.623366
-0.369168
-0.112991
0.145078
0.404952
0.666544
0.929765
1.19453
1.46075
1.72833
1.99719
2.26724
2.5384
2.81057
3.08366
3.35761
3.63231
3.90768
4.18364
4.46011
4.737
5.01423
5.29173
5.56942
5.84721
6.12503
6.40281
6.68048
6.95796
7.23517
7.51206
7.78856
8.0646
8.34011
8.61503
8.88931
9.16288
9.43569
9.70768
9.97879
10.249
10.5182
10.7864
11.0535
11.3195
11.5843
11.8479
12.1103
12.3714
12.6311
12.8895
13.1465
13.4021
13.6562
13.9089
14.16
14.4095
14.6575
14.9039
15.1487
15.3918
15.6333
15.8731
16.1112
16.3475
16.5822
16.8151
17.0462
17.2756
17.5031
17.7289
17.9529
18.175
18.3953
18.6138
18.8305
19.0453
19.2583
19.4694
19.6787
19.8861
20.0917
20.2954
20.4973
20.6973
20.8954
21.0917
21.2861
21.4787
21.6695
21.8584
22.0454
22.2307
22.4141
22.5957
22.7754
22.9534
23.1295
23.3039
23.4764
23.6472
23.8162
23.9834
24.1489
24.3126
24.4746
24.6348
24.7933
24.9501
25.1052
25.2586
25.4103
25.5603
25.7087
25.8554
26.0005
26.1439
26.2857
26.4259
26.5645
26.7015
26.8369
26.9708
27.1031
27.2338
27.363
27.4907
27.6169
27.7415
27.8647
27.9864
28.1066
28.2254
28.3427
28.4586
28.573
28.6861
28.7977
28.9079
29.0168
29.1243
29.2305
29.3353
29.4387
29.5409
29.6417
29.7412
29.8394
29.9364
30.0321
30.1265
30.2197
30.3116
30.4023
30.4918
30.58
30.6671
30.753
30.8377
30.9213
31.0037
31.0849
31.165
31.244
31.3219
31.3986
31.4743
31.5488
31.6223
31.6947
31.766
31.8363
31.9056
31.9738
32.0409
32.1071
32.1722
32.2364
32.2995
32.3617
32.4229
32.4831
32.5423
32.6006
32.6579
32.7143
32.7698
32.8243
32.8779
32.9306
32.9824
33.0333
33.0833
33.1324
33.1807
33.228
33.2745
33.3202
33.365
33.4089
33.452
33.4943
33.5357
33.5763
33.6161
33.655
33.6932
33.7306
33.7671
33.8029
33.8378
33.872
33.9054
33.9381
33.9699
34.001
34.0313
34.0609
34.0897
34.1178
34.1451
34.1717
34.1975
34.2226
34.2469
34.2706
34.2935
34.3156
34.3371
34.3578
34.3778
34.3971
34.4157
34.4336
34.4508
34.4673
34.4831
34.4981
34.5125
34.5262
34.5392
34.5515
34.5631
34.574
34.5842
34.5937
34.6026
34.6107
34.6182
34.625
34.6311
34.6366
34.6413
34.6454
34.6488
34.6515
34.6535
34.6549
34.6556
-9.13704
-9.13253
-9.12354
-9.11004
-9.09206
-9.06957
-9.04257
-9.01106
-8.97504
-8.93449
-8.88941
-8.83978
-8.78559
-8.72684
-8.66351
-8.59558
-8.52305
-8.44589
-8.3641
-8.27765
-8.18654
-8.09074
-7.99025
-7.88503
-7.77508
-7.66039
-7.54094
-7.41673
-7.28773
-7.15395
-7.01538
-6.87203
-6.7239
-6.571
-6.41336
-6.251
-6.08395
-5.91226
-5.73598
-5.55517
-5.36991
-5.18028
-4.98637
-4.78828
-4.58613
-4.38003
-4.1701
-3.95647
-3.73928
-3.51864
-3.2947
-3.06757
-2.83739
-2.60426
-2.3683
-2.12962
-1.88832
-1.6445
-1.39826
-1.1497
-0.898902
-0.64596
-0.390963
-0.134
0.124841
0.385471
0.647803
0.911749
1.17722
1.44413
1.71239
1.9819
2.2526
2.52437
2.79715
3.07084
3.34536
3.62061
3.89652
4.17301
4.44998
4.72737
5.00508
5.28303
5.56116
5.83937
6.11761
6.39578
6.67382
6.95166
7.22922
7.50644
7.78325
8.05959
8.33538
8.61058
8.88511
9.15892
9.43195
9.70415
9.97546
10.2458
10.5152
10.7836
11.0508
11.3169
11.5819
11.8456
12.1081
12.3692
12.6291
12.8875
13.1446
13.4002
13.6543
13.907
14.1581
14.4077
14.6557
14.902
15.1468
15.3899
15.6313
15.871
16.1091
16.3454
16.5799
16.8127
17.0438
17.273
17.5005
17.7262
17.95
18.172
18.3923
18.6106
18.8272
19.0418
19.2547
19.4657
19.6748
19.882
20.0875
20.291
20.4927
20.6925
20.8905
21.0866
21.2809
21.4733
21.6638
21.8526
22.0394
22.2245
22.4077
22.5891
22.7686
22.9464
23.1223
23.2965
23.4688
23.6394
23.8082
23.9752
24.1405
24.304
24.4658
24.6258
24.7841
24.9407
25.0956
25.2488
25.4003
25.5502
25.6983
25.8448
25.9897
26.1329
26.2745
26.4145
26.5529
26.6897
26.8249
26.9586
27.0907
27.2212
27.3503
27.4777
27.6037
27.7282
27.8512
27.9727
28.0927
28.2113
28.3284
28.4441
28.5584
28.6712
28.7827
28.8928
29.0015
29.1088
29.2148
29.3194
29.4227
29.5247
29.6253
29.7247
29.8227
29.9195
30.015
30.1093
30.2023
30.2941
30.3846
30.474
30.5621
30.649
30.7348
30.8193
30.9027
30.985
31.0661
31.1461
31.2249
31.3026
31.3792
31.4548
31.5292
31.6025
31.6748
31.746
31.8162
31.8853
31.9534
32.0204
32.0865
32.1515
32.2155
32.2785
32.3406
32.4017
32.4618
32.5209
32.5791
32.6363
32.6926
32.748
32.8024
32.8559
32.9085
32.9602
33.011
33.0609
33.11
33.1581
33.2054
33.2518
33.2974
33.3421
33.3859
33.4289
33.4711
33.5125
33.553
33.5927
33.6316
33.6697
33.707
33.7435
33.7791
33.814
33.8482
33.8815
33.9141
33.9459
33.9769
34.0072
34.0367
34.0654
34.0935
34.1207
34.1472
34.173
34.1981
34.2224
34.246
34.2688
34.291
34.3124
34.3331
34.353
34.3723
34.3909
34.4087
34.4259
34.4423
34.4581
34.4731
34.4875
34.5011
34.5141
34.5263
34.5379
34.5488
34.559
34.5685
34.5773
34.5855
34.593
34.5997
34.6058
34.6113
34.616
34.6201
34.6235
34.6262
34.6282
34.6296
34.6302
-9.11544
-9.11101
-9.10218
-9.08893
-9.07127
-9.04918
-9.02267
-8.99172
-8.95634
-8.9165
-8.87221
-8.82344
-8.77019
-8.71243
-8.65017
-8.58338
-8.51205
-8.43616
-8.3557
-8.27064
-8.18096
-8.08666
-7.9877
-7.88408
-7.77577
-7.66276
-7.54503
-7.42256
-7.29533
-7.16335
-7.02659
-6.88505
-6.73873
-6.58762
-6.43175
-6.27111
-6.10574
-5.93565
-5.76089
-5.5815
-5.39754
-5.20908
-5.0162
-4.81899
-4.61755
-4.41199
-4.20243
-3.98901
-3.77186
-3.55112
-3.32692
-3.09942
-2.86875
-2.63504
-2.39842
-2.15902