/*--------------------------------*- C++ -*----------------------------------*\
| =========                 |                                                 |
| \\      /  F ield         | OpenFOAM: The Open Source CFD Toolbox           |
|  \\    /   O peration     | Version:  2212                                  |
|   \\  /    A nd           | Website:  www.openfoam.com                      |
|    \\/     M anipulation  |                                                 |
\*---------------------------------------------------------------------------*/
FoamFile
{
    version     2.0;
    format      ascii;
    arch        "LSB;label=32;scalar=64";
    class       surfaceScalarField;
    location    "130";
    object      phi;
}
// * * * * * * * * * * * * * * * * * * * * * * * * * * * * * * * * * * * * * //

dimensions      [1 0 -1 0 0 0 0];

oriented        oriented;

internalField   nonuniform List<scalar> 
408640
(
-1018.92
1018.02
-2037.7
1018.58
-3055.86
1017.96
-4072.68
1016.63
-5087.4
1014.53
-6099.22
1011.62
-7107.22
1007.8
-8110.43
1003
-9107.79
997.146
-10098.2
990.202
-11080.6
982.176
-12054
973.134
-13017.4
963.197
-13970.2
952.512
-14911.6
941.194
-15841.2
929.271
-16758.1
916.67
-17661.6
903.279
-18550.9
889.025
-19425.2
873.924
-20283.5
858.059
-21125.3
841.522
-21950
824.381
-22757
806.683
-23545.8
788.483
-24315.9
769.856
-25067.1
750.885
-25799.1
731.655
-26511.6
712.25
-27204.7
692.749
-27878.2
673.225
-28532.2
653.729
-29166.8
634.297
-29782.1
614.955
-30378.1
595.725
-30955
576.622
-31513
557.658
-32052.1
538.841
-32572.6
520.179
-33074.6
501.681
-33558.2
483.353
-34023.7
465.199
-34471.2
447.218
-34900.9
429.411
-35313
411.78
-35707.6
394.327
-36084.9
377.057
-36445.2
359.975
-36788.6
343.087
-37115.2
326.399
-37425.4
309.915
-37719.4
293.64
-37997.2
277.579
-38259.2
261.735
-38505.6
246.113
-38736.6
230.715
-38952.4
215.546
-39153.3
200.611
-39339.5
185.912
-39511.2
171.454
-39668.8
157.241
-39812.3
143.276
-39942.1
129.563
-40058.5
116.105
-40161.7
102.906
-40251.9
89.9678
-40329.5
77.2931
-40394.6
64.884
-40447.6
52.7421
-40488.8
40.8689
-40518.3
29.2655
-40536.5
17.9325
-40543.6
6.87043
-40540
-3.92064
-40525.8
-14.4409
-40501.4
-24.6907
-40466.9
-34.671
-40422.8
-44.3826
-40369.2
-53.8268
-40306.5
-63.0051
-40234.8
-71.9193
-40154.5
-80.5713
-40065.8
-88.9631
-39968.9
-97.0971
-39864.2
-104.976
-39751.9
-112.602
-39632.1
-119.978
-39505.3
-127.107
-39371.5
-133.993
-39231.1
-140.638
-39084.3
-147.046
-38931.3
-153.22
-38772.4
-159.163
-38607.7
-164.88
-38437.6
-170.375
-38262.2
-175.65
-38081.7
-180.71
-37896.4
-185.559
-37706.4
-190.201
-37512
-194.64
-37313.3
-198.879
-37110.6
-202.923
-36904
-206.777
-36693.8
-210.443
-36480.1
-213.927
-36263.1
-217.233
-36042.9
-220.364
-35819.8
-223.325
-35593.9
-226.12
-35365.3
-228.753
-35134.3
-231.228
-34900.9
-233.55
-34665.4
-235.721
-34427.8
-237.748
-34188.4
-239.632
-33947.2
-241.379
-33704.4
-242.992
-33460.1
-244.475
-33214.4
-245.832
-32967.5
-247.067
-32719.5
-248.183
-32470.5
-249.184
-32220.6
-250.074
-31969.9
-250.856
-31718.5
-251.534
-31466.5
-252.111
-31214.1
-252.59
-30961.2
-252.976
-30708.1
-253.27
-30454.8
-253.477
-30201.3
-253.599
-29947.8
-253.64
-29694.3
-253.602
-29440.9
-253.489
-29187.7
-253.303
-28934.8
-253.047
-28682.2
-252.724
-28429.9
-252.336
-28178.1
-251.887
-27926.9
-251.378
-27676.1
-250.813
-27426
-250.193
-27176.6
-249.521
-26927.8
-248.8
-26679.9
-248.031
-26432.7
-247.216
-26186.4
-246.359
-25941
-245.46
-25696.6
-244.522
-25453.1
-243.547
-25210.6
-242.537
-24969.1
-241.494
-24728.7
-240.418
-24489.4
-239.313
-24251.3
-238.18
-24014.3
-237.02
-23778.5
-235.835
-23543.8
-234.626
-23310.4
-233.395
-23078.3
-232.144
-22847.4
-230.874
-22617.8
-229.585
-22389.5
-228.28
-22162.6
-226.96
-21936.9
-225.625
-21712.6
-224.278
-21489.6
-222.919
-21268.1
-221.549
-21047.8
-220.169
-20829
-218.781
-20611.6
-217.384
-20395.5
-215.982
-20180.9
-214.573
-19967.7
-213.159
-19755.9
-211.741
-19545.5
-210.32
-19336.5
-208.896
-19129
-207.47
-18922.8
-206.043
-18718.1
-204.616
-18514.8
-203.189
-18313
-201.763
-18112.5
-200.338
-17913.5
-198.916
-17715.9
-197.496
-17519.7
-196.079
-17324.9
-194.666
-17131.5
-193.257
-16939.6
-191.853
-16749
-190.454
-16559.8
-189.06
-16372
-187.673
-16185.5
-186.291
-16000.5
-184.917
-15816.8
-183.549
-15634.4
-182.189
-15453.4
-180.836
-15273.8
-179.492
-15095.5
-178.156
-14918.5
-176.828
-14742.8
-175.51
-14568.4
-174.2
-14395.4
-172.9
-14223.6
-171.609
-14053.1
-170.328
-13883.8
-169.057
-13715.8
-167.797
-13549.1
-166.546
-13383.6
-165.306
-13219.3
-164.077
-13056.3
-162.858
-12894.4
-161.651
-12733.8
-160.454
-12574.3
-159.269
-12416
-158.095
-12258.9
-156.932
-12102.9
-155.781
-11948
-154.641
-11794.3
-153.513
-11641.7
-152.397
-11490.2
-151.293
-11339.8
-150.2
-11190.5
-149.119
-11042.2
-148.051
-10895
-146.994
-10748.8
-145.949
-10603.7
-144.917
-10459.6
-143.896
-10316.4
-142.888
-10174.3
-141.891
-10033.2
-140.907
-9893.04
-139.935
-9753.84
-138.975
-9615.58
-138.028
-9478.26
-137.092
-9341.87
-136.169
-9206.38
-135.258
-9071.79
-134.359
-8938.09
-133.472
-8805.27
-132.598
-8673.3
-131.735
-8542.19
-130.885
-8411.91
-130.046
-8282.47
-129.22
-8153.83
-128.406
-8026
-127.603
-7898.96
-126.813
-7772.69
-126.035
-7647.2
-125.268
-7522.46
-124.514
-7398.46
-123.771
-7275.19
-123.04
-7152.64
-122.321
-7030.8
-121.614
-6909.66
-120.918
-6789.2
-120.234
-6669.42
-119.562
-6550.29
-118.901
-6431.82
-118.252
-6313.98
-117.614
-6196.77
-116.988
-6080.18
-116.374
-5964.19
-115.77
-5848.8
-115.178
-5733.98
-114.598
-5619.74
-114.028
-5506.05
-113.47
-5392.92
-112.923
-5280.32
-112.387
-5168.24
-111.862
-5056.68
-111.349
-4945.63
-110.846
-4835.06
-110.354
-4724.98
-109.874
-4615.37
-109.404
-4506.22
-108.945
-4397.52
-108.497
-4289.26
-108.059
-4181.43
-107.633
-4074.01
-107.217
-3967
-106.811
-3860.38
-106.417
-3754.15
-106.033
-3648.3
-105.659
-3542.81
-105.296
-3437.67
-104.944
-3332.87
-104.602
-3228.41
-104.27
-3124.27
-103.949
-3020.44
-103.638
-2916.92
-103.338
-2813.68
-103.048
-2710.73
-102.768
-2608.04
-102.498
-2505.62
-102.239
-2403.45
-101.99
-2301.51
-101.751
-2199.81
-101.522
-2098.33
-101.303
-1997.05
-101.094
-1895.98
-100.896
-1795.09
-100.707
-1694.39
-100.529
-1593.85
-100.36
-1493.47
-100.202
-1393.24
-100.053
-1293.15
-99.9148
-1193.19
-99.7863
-1093.35
-99.6677
-993.617
-99.5591
-893.984
-99.4604
-794.44
-99.3718
-694.974
-99.2932
-595.578
-99.225
-496.239
-99.1674
-396.946
-99.121
-297.689
-99.0862
-198.454
-99.0642
-99.2281
-99.0548
-99.0573
-1012.31
2030.11
-2024.61
2030.64
-3036.25
2029.38
-4046.54
2026.71
-5054.79
2022.56
-6060.24
2016.84
-7062.05
2009.38
-8059.34
2000.05
-9051.15
1988.72
-10036.5
1975.33
-11014.5
1959.88
-11984.1
1942.49
-12944.5
1923.35
-13895
1902.73
-14834.9
1880.81
-15763.5
1857.62
-16680.2
1833.03
-17584.1
1806.85
-18474.3
1778.95
-19350
1749.33
-20210.4
1718.15
-21054.8
1685.56
-21882.4
1651.69
-22692.6
1616.61
-23484.9
1580.45
-24258.7
1543.35
-25013.6
1505.47
-25749.3
1467
-26465.4
1428.09
-27161.9
1388.92
-27838.6
1349.64
-28495.6
1310.37
-29132.8
1271.18
-29750.3
1232.16
-30348.2
1193.35
-30926.7
1154.79
-31485.8
1116.53
-32025.9
1078.58
-32546.9
1040.96
-33049.3
1003.71
-33533
966.834
-33998.5
930.337
-34445.8
894.221
-34875.1
858.483
-35286.8
823.122
-35680.9
788.141
-36057.6
753.547
-36417.3
719.345
-36760
685.544
-37086.1
652.154
-37395.6
619.182
-37688.9
586.634
-37966.1
554.518
-38227.5
522.84
-38473.3
491.606
-38703.6
460.824
-38918.9
430.5
-39119.2
400.642
-39304.8
371.259
-39476
342.357
-39633
313.944
-39776
286.028
-39905.3
258.617
-40021.2
231.715
-40123.9
205.331
-40213.6
179.469
-40290.8
154.134
-40355.5
129.33
-40408
105.061
-40448.8
81.3295
-40477.9
58.1372
-40495.7
35.486
-40502.5
13.3767
-40498.5
-8.19065
-40484
-29.2163
-40459.2
-49.7011
-40424.5
-69.6468
-40380.1
-89.0552
-40326.2
-107.929
-40263.2
-126.271
-40191.3
-144.085
-40110.7
-161.374
-40021.8
-178.143
-39924.8
-194.397
-39819.8
-210.14
-39707.3
-225.378
-39587.4
-240.117
-39460.4
-254.362
-39326.5
-268.119
-39186
-281.396
-39039.1
-294.198
-38886
-306.533
-38727
-318.408
-38562.3
-329.829
-38392.1
-340.806
-38216.6
-351.344
-38036.1
-361.452
-37850.8
-371.139
-37660.8
-380.41
-37466.3
-389.276
-37267.7
-397.744
-37065
-405.822
-36858.5
-413.518
-36648.3
-420.84
-36434.7
-427.798
-36217.7
-434.399
-35997.6
-440.652
-35774.6
-446.564
-35548.8
-452.145
-35320.3
-457.402
-35089.4
-462.344
-34856.1
-466.978
-34620.7
-471.314
-34383.3
-475.358
-34144
-479.119
-33903
-482.606
-33660.3
-485.824
-33416.2
-488.784
-33170.7
-491.491
-32924
-493.954
-32676.1
-496.18
-32427.3
-498.176
-32177.6
-499.95
-31927.1
-501.508
-31675.9
-502.858
-31424.2
-504.007
-31171.9
-504.961
-30919.3
-505.727
-30666.4
-506.311
-30413.3
-506.72
-30160.1
-506.961
-29906.8
-507.038
-29653.6
-506.959
-29400.5
-506.728
-29147.5
-506.353
-28894.8
-505.838
-28642.5
-505.189
-28390.5
-504.411
-28139
-503.509
-27887.9
-502.49
-27637.5
-501.356
-27387.7
-500.114
-27138.5
-498.768
-26890
-497.323
-26642.3
-495.783
-26395.5
-494.153
-26149.5
-492.436
-25904.3
-490.638
-25660.1
-488.761
-25416.9
-486.81
-25174.7
-484.789
-24933.6
-482.7
-24693.5
-480.549
-24454.5
-478.338
-24216.6
-476.071
-23979.9
-473.75
-23744.3
-471.379
-23510
-468.962
-23276.9
-466.5
-23045.1
-463.998
-22814.5
-461.457
-22585.2
-458.88
-22357.2
-456.27
-22130.5
-453.63
-21905.1
-450.961
-21681.1
-448.266
-21458.4
-445.548
-21237.1
-442.809
-21017.2
-440.05
-20798.7
-437.274
-20581.5
-434.482
-20365.8
-431.677
-20151.4
-428.86
-19938.5
-426.033
-19727
-423.198
-19516.8
-420.356
-19308.2
-417.51
-19100.9
-414.659
-18895
-411.807
-18690.6
-408.953
-18487.6
-406.1
-18286
-403.249
-18085.8
-400.401
-17887.1
-397.557
-17689.8
-394.719
-17493.8
-391.886
-17299.3
-389.062
-17106.2
-386.245
-16914.5
-383.438
-16724.2
-380.641
-16535.3
-377.855
-16347.7
-375.081
-16161.5
-372.32
-15976.7
-369.572
-15793.3
-366.838
-15611.2
-364.119
-15430.5
-361.416
-15251.1
-358.728
-15073
-356.057
-14896.3
-353.404
-14720.9
-350.768
-14546.7
-348.15
-14373.9
-345.551
-14202.4
-342.971
-14032.1
-340.411
-13863.1
-337.87
-13695.4
-335.35
-13528.9
-332.851
-13363.6
-330.372
-13199.6
-327.915
-13036.8
-325.48
-12875.2
-323.066
-12714.8
-320.674
-12555.5
-318.305
-12397.5
-315.958
-12240.6
-313.635
-12084.8
-311.334
-11930.2
-309.056
-11776.7
-306.801
-11624.3
-304.57
-11473
-302.363
-11322.8
-300.179
-11173.7
-298.019
-11025.7
-295.883
-10878.7
-293.771
-10732.7
-291.683
-10587.8
-289.619
-10443.9
-287.579
-10301
-285.564
-10159.1
-283.573
-10018.2
-281.606
-9878.2
-279.663
-9739.21
-277.745
-9601.16
-275.851
-9464.04
-273.981
-9327.85
-272.136
-9192.56
-270.315
-9058.18
-268.518
-8924.67
-266.746
-8792.05
-264.998
-8660.28
-263.274
-8529.36
-261.574
-8399.28
-259.898
-8270.02
-258.247
-8141.58
-256.62
-8013.94
-255.016
-7887.09
-253.437
-7761.01
-251.881
-7635.71
-250.349
-7511.15
-248.841
-7387.34
-247.357
-7264.26
-245.896
-7141.89
-244.459
-7020.24
-243.046
-6899.27
-241.655
-6779
-240.288
-6659.39
-238.945
-6540.45
-237.624
-6422.15
-236.327
-6304.49
-235.052
-6187.46
-233.801
-6071.04
-232.572
-5955.22
-231.367
-5840
-230.184
-5725.36
-229.023
-5611.29
-227.885
-5497.77
-226.77
-5384.81
-225.676
-5272.37
-224.605
-5160.47
-223.557
-5049.08
-222.53
-4938.19
-221.525
-4827.79
-220.543
-4717.88
-219.582
-4608.43
-218.643
-4499.45
-217.726
-4390.91
-216.83
-4282.81
-215.956
-4175.14
-215.103
-4067.88
-214.272
-3961.03
-213.462
-3854.58
-212.674
-3748.51
-211.906
-3642.81
-211.16
-3537.48
-210.434
-3432.5
-209.73
-3327.86
-209.047
-3223.55
-208.384
-3119.57
-207.742
-3015.9
-207.121
-2912.53
-206.521
-2809.45
-205.941
-2706.65
-205.381
-2604.12
-204.843
-2501.85
-204.324
-2399.83
-203.826
-2298.05
-203.348
-2196.5
-202.891
-2095.17
-202.454
-1994.05
-202.037
-1893.13
-201.64
-1792.39
-201.263
-1691.84
-200.906
-1591.45
-200.57
-1491.22
-200.253
-1391.15
-199.956
-1291.21
-199.679
-1191.4
-199.422
-1091.7
-199.185
-992.123
-198.968
-892.639
-198.771
-793.245
-198.594
-693.93
-198.437
-594.683
-198.3
-495.494
-198.185
-396.352
-198.092
-297.245
-198.023
-198.16
-197.978
-99.0837
-197.96
-197.97
-1004.22
3034.05
-2008.31
3034.45
-3011.72
3032.51
-4013.79
3028.5
-5013.89
3022.38
-6011.32
3013.98
-7005.33
3003.1
-7995.13
2989.56
-8979.91
2973.2
-9958.81
2953.92
-10931
2931.75
-11895.6
2906.81
-12852
2879.35
-13799.2
2849.68
-14736.8
2818.03
-15663.9
2784.42
-16579.9
2748.68
-17483.9
2710.55
-18375.2
2669.84
-19252.8
2626.58
-20115.9
2580.91
-20963.7
2533.04
-21795.5
2483.1
-22610.5
2431.24
-23408
2377.62
-24187.4
2322.44
-24948.2
2265.94
-25690
2208.37
-26412.2
2149.98
-27114.6
2091.04
-27797.1
2031.79
-28459.5
1972.43
-29101.7
1913.1
-29723.8
1853.93
-30325.8
1795.02
-30907.8
1736.48
-31470
1678.37
-32012.4
1620.76
-32535.5
1563.69
-33039.3
1507.21
-33524.1
1451.37
-33990.2
1396.16
-34437.9
1341.59
-34867.3
1287.65
-35278.8
1234.34
-35672.6
1181.65
-36049
1129.59
-36408.1
1078.16
-36750.2
1027.37
-37075.5
977.221
-37384.3
927.723
-37676.9
878.881
-37953.3
830.698
-38214
783.182
-38459
736.338
-38688.6
690.175
-38903.1
644.702
-39102.6
599.93
-39287.5
555.87
-39458
512.532
-39614.2
469.929
-39756.5
428.072
-39885.2
386.971
-40000.4
346.636
-40102.4
307.077
-40191.5
268.302
-40267.9
230.318
-40332
193.131
-40383.9
156.746
-40424
121.168
-40452.6
86.3993
-40469.8
52.4427
-40476
19.2993
-40471.4
-13.0308
-40456.3
-44.548
-40431
-75.2538
-40395.8
-105.151
-40350.8
-134.241
-40296.5
-162.53
-40233
-190.021
-40160.6
-216.719
-40079.6
-242.631
-39990.2
-267.763
-39892.7
-292.121
-39787.4
-315.713
-39674.5
-338.548
-39554.2
-360.634
-39426.8
-381.979
-39292.6
-402.593
-39151.8
-422.486
-39004.5
-441.668
-38851.2
-460.149
-38691.9
-477.939
-38526.9
-495.051
-38356.4
-511.494
-38180.7
-527.281
-38000
-542.423
-37814.4
-556.932
-37624.2
-570.82
-37429.6
-584.099
-37230.8
-596.781
-37027.9
-608.879
-36821.3
-620.404
-36611
-631.37
-36397.2
-641.788
-36180.1
-651.672
-35959.9
-661.034
-35736.8
-669.885
-35510.9
-678.239
-35282.4
-686.109
-35051.4
-693.505
-34818.2
-700.441
-34582.8
-706.929
-34345.3
-712.981
-34106
-718.608
-33865
-723.823
-33622.3
-728.638
-33378.2
-733.063
-33132.8
-737.111
-32886.1
-740.793
-32638.3
-744.119
-32389.6
-747.102
-32139.9
-749.751
-31889.5
-752.077
-31638.4
-754.092
-31386.8
-755.804
-31134.7
-757.225
-30882.2
-758.364
-30629.4
-759.231
-30376.4
-759.836
-30123.3
-760.188
-29870.2
-760.295
-29617.1
-760.168
-29364.1
-759.815
-29111.3
-759.244
-28858.8
-758.465
-28606.6
-757.484
-28354.8
-756.31
-28103.5
-754.952
-27852.6
-753.416
-27602.4
-751.711
-27352.7
-749.842
-27103.7
-747.818
-26855.5
-745.646
-26608
-743.331
-26361.4
-740.881
-26115.6
-738.302
-25870.6
-735.6
-25626.7
-732.781
-25383.7
-729.852
-25141.7
-726.816
-24900.7
-723.681
-24660.9
-720.451
-24422.1
-717.132
-24184.5
-713.728
-23948
-710.245
-23712.7
-706.687
-23478.6
-703.059
-23245.8
-699.365
-23014.1
-695.61
-22783.8
-691.797
-22554.7
-687.93
-22327
-684.015
-22100.5
-680.053
-21875.4
-676.049
-21651.6
-672.007
-21429.2
-667.929
-21208.2
-663.82
-20988.5
-659.681
-20770.2
-655.516
-20553.3
-651.329
-20337.8
-647.121
-20123.7
-642.896
-19911
-638.656
-19699.8
-634.404
-19489.9
-630.142
-19281.5
-625.873
-19074.4
-621.598
-18868.8
-617.319
-18664.7
-613.04
-18461.9
-608.762
-18260.6
-604.486
-18060.6
-600.215
-17862.1
-595.95
-17665.1
-591.694
-17469.4
-587.446
-17275.1
-583.21
-17082.3
-578.987
-16890.8
-574.778
-16700.7
-570.584
-16512
-566.406
-16324.7
-562.247
-16138.8
-558.106
-15954.2
-553.986
-15771
-549.887
-15589.2
-545.81
-15408.7
-541.757
-15229.5
-537.727
-15051.7
-533.723
-14875.2
-529.744
-14700
-525.792
-14526.1
-521.867
-14353.5
-517.97
-14182.2
-514.102
-14012.2
-510.264
-13843.4
-506.455
-13675.9
-502.677
-13509.7
-498.929
-13344.6
-495.214
-13180.8
-491.53
-13018.2
-487.878
-12856.8
-484.26
-12696.6
-480.674
-12537.6
-477.122
-12379.8
-473.604
-12223.1
-470.121
-12067.5
-466.671
-11913.1
-463.256
-11759.8
-459.877
-11607.7
-456.532
-11456.6
-453.223
-11306.6
-449.949
-11157.7
-446.711
-11009.9
-443.509
-10863.1
-440.342
-10717.3
-437.212
-10572.6
-434.118
-10428.9
-431.06
-10286.2
-428.039
-10144.5
-425.054
-10003.8
-422.105
-9864.03
-419.193
-9725.23
-416.318
-9587.37
-413.478
-9450.45
-410.676
-9314.45
-407.91
-9179.36
-405.18
-9045.16
-402.487
-8911.85
-399.83
-8779.41
-397.209
-8647.83
-394.625
-8517.1
-392.077
-8387.2
-389.565
-8258.13
-387.09
-8129.87
-384.65
-8002.41
-382.247
-7875.74
-379.879
-7749.85
-377.547
-7624.72
-375.251
-7500.34
-372.991
-7376.71
-370.766
-7253.8
-368.576
-7131.61
-366.422
-7010.13
-364.303
-6889.34
-362.219
-6769.24
-360.17
-6649.8
-358.156
-6531.03
-356.177
-6412.9
-354.232
-6295.41
-352.322
-6178.54
-350.446
-6062.29
-348.604
-5946.64
-346.797
-5831.59
-345.023
-5717.11
-343.284
-5603.2
-341.578
-5489.85
-339.906
-5377.05
-338.267
-5264.78
-336.662
-5153.03
-335.09
-5041.8
-333.551
-4931.07
-332.045
-4820.83
-330.572
-4711.08
-329.132
-4601.79
-327.725
-4492.96
-326.35
-4384.58
-325.007
-4276.64
-323.697
-4169.12
-322.419
-4062.02
-321.173
-3955.32
-319.959
-3849.02
-318.777
-3743.1
-317.627
-3637.56
-316.508
-3532.38
-315.421
-3427.55
-314.365
-3323.06
-313.34
-3218.91
-312.347
-3115.07
-311.385
-3011.55
-310.454
-2908.33
-309.554
-2805.4
-308.685
-2702.75
-307.847
-2600.37
-307.039
-2498.24
-306.262
-2396.37
-305.515
-2294.74
-304.799
-2193.33
-304.113
-2092.15
-303.458
-1991.17
-302.833
-1890.4
-302.238
-1789.81
-301.673
-1689.4
-301.139
-1589.16
-300.634
-1489.07
-300.159
-1389.14
-299.714
-1289.35
-299.3
-1189.68
-298.915
-1090.13
-298.559
-990.692
-298.234
-891.353
-297.938
-792.102
-297.673
-692.929
-297.437
-593.826
-297.232
-494.78
-297.059
-395.781
-296.92
-296.817
-296.816
-197.874
-296.75
-98.9393
-296.724
-296.739
-993.691
4027.39
-1987.15
4027.56
-2979.85
4024.87
-3971.25
4019.55
-4960.76
4011.54
-5947.76
4000.63
-6931.61
3986.6
-7911.64
3969.23
-8887.17
3948.36
-9857.49
3923.88
-10821.9
3895.79
-11779.7
3864.23
-12730.2
3829.46
-13672.7
3791.8
-14606.6
3751.48
-15531.1
3708.5
-16445.4
3662.66
-17349
3613.66
-18240.8
3561.29
-19120.2
3505.52
-19986.2
3446.51
-20838
3384.45
-21674.8
3319.48
-22495.7
3251.78
-23300.1
3181.54
-24087
3109.01
-24856
3034.48
-25606.2
2958.24
-26337.2
2880.64
-27048.6
2802.02
-27739.9
2722.73
-28410.8
2643.03
-29061.2
2563.16
-29691
2483.32
-30300
2403.7
-30888.3
2324.48
-31456
2245.78
-32003.3
2167.73
-32530.4
2090.45
-33037.5
2014.02
-33524.9
1938.51
-33993
1863.95
-34442.1
1790.36
-34872.5
1717.73
-35284.5
1646.05
-35678.4
1575.3
-36054.6
1505.48
-36413.3
1436.6
-36754.9
1368.63
-37079.5
1301.59
-37387.5
1235.47
-37679.2
1170.27
-37954.8
1105.97
-38214.5
1042.59
-38458.5
980.12
-38687.2
918.568
-38900.7
857.943
-39099.3
798.256
-39283.2
739.521
-39452.7
681.752
-39608
624.963
-39749.4
569.169
-39877.1
514.385
-39991.3
460.623
-40092.4
407.897
-40180.6
356.217
-40256.1
305.593
-40319.3
256.033
-40370.4
207.543
-40409.6
160.13
-40437.2
113.797
-40453.6
68.548
-40459
24.3838
-40453.6
-18.6951
-40437.7
-60.6895
-40411.6
-101.601
-40375.6
-141.434
-40329.9
-180.191
-40274.8
-217.879
-40210.5
-254.502
-40137.4
-290.068
-40055.7
-324.585
-39965.7
-358.061
-39867.5
-390.507
-39761.6
-421.931
-39648
-452.344
-39527.1
-481.759
-39399.2
-510.186
-39264.4
-537.638
-39123
-564.129
-38975.2
-589.672
-38821.3
-614.28
-38661.5
-637.968
-38496
-660.751
-38325.1
-682.644
-38149
-703.661
-37967.8
-723.818
-37781.8
-743.132
-37591.3
-761.618
-37396.3
-779.292
-37197.1
-796.17
-36993.9
-812.27
-36786.9
-827.608
-36576.3
-842.199
-36362.3
-856.061
-36144.9
-869.211
-35924.5
-881.665
-35701.2
-893.439
-35475
-904.551
-35246.3
-915.017
-35015.2
-924.852
-34781.7
-934.075
-34546.2
-942.7
-34308.6
-950.744
-34069.2
-958.224
-33828
-965.154
-33585.3
-971.55
-33341.1
-977.428
-33095.6
-982.803
-32848.8
-987.691
-32601
-992.105
-32352.2
-996.061
-32102.5
-999.574
-31852.1
-1002.66
-31601
-1005.32
-31349.4
-1007.59
-31097.3
-1009.47
-30844.8
-1010.97
-30592.1
-1012.11
-30339.2
-1012.9
-30086.1
-1013.35
-29833.1
-1013.48
-29580.1
-1013.3
-29327.2
-1012.81
-29074.5
-1012.04
-28822.1
-1010.99
-28570
-1009.67
-28318.3
-1008.09
-28067.1
-1006.27
-27816.4
-1004.21
-27566.3
-1001.92
-27316.8
-999.421
-27068
-996.713
-26819.9
-993.807
-26572.6
-990.712
-26326.1
-987.437
-26080.4
-983.991
-25835.7
-980.38
-25591.9
-976.615
-25349.1
-972.701
-25107.3
-968.648
-24866.6
-964.461
-24626.9
-960.149
-24388.4
-955.718
-24151
-951.174
-23914.7
-946.525
-23679.6
-941.777
-23445.7
-936.935
-23213.1
-932.006
-22981.7
-926.995
-22751.6
-921.907
-22522.8
-916.749
-22295.3
-911.525
-22069
-906.24
-21844.2
-900.9
-21620.6
-895.507
-21398.5
-890.068
-21177.7
-884.587
-20958.2
-879.067
-20740.2
-873.513
-20523.5
-867.929
-20308.3
-862.318
-20094.4
-856.683
-19882
-851.03
-19671
-845.36
-19461.4
-839.677
-19253.2
-833.984
-19046.4
-828.284
-18841.1
-822.58
-18637.1
-816.874
-18434.6
-811.17
-18233.6
-805.47
-18033.9
-799.776
-17835.6
-794.09
-17638.8
-788.415
-17443.4
-782.753
-17249.4
-777.106
-17056.8
-771.476
-16865.5
-765.865
-16675.7
-760.275
-16487.3
-754.706
-16300.2
-749.162
-16114.6
-743.643
-15930.2
-738.151
-15747.3
-732.687
-15565.7
-727.253
-15385.5
-721.85
-15206.5
-716.479
-15029
-711.142
-14852.7
-705.839
-14677.8
-700.572
-14504.1
-695.341
-14331.8
-690.147
-14160.7
-684.992
-13990.9
-679.876
-13822.4
-674.8
-13655.1
-669.764
-13489.1
-664.77
-13324.3
-659.818
-13160.7
-654.909
-12998.4
-650.043
-12837.2
-645.22
-12677.2
-640.442
-12518.5
-635.708
-12360.8
-631.02
-12204.4
-626.377
-12049.1
-621.781
-11894.9
-617.23
-11741.8
-612.726
-11589.9
-608.269
-11439
-603.859
-11289.3
-599.496
-11140.6
-595.182
-10993
-590.914
-10846.4
-586.695
-10700.9
-582.524
-10556.4
-578.401
-10412.9
-574.326
-10270.4
-570.3
-10128.9
-566.323
-9988.38
-562.394
-9848.83
-558.513
-9710.24
-554.681
-9572.6
-550.898
-9435.88
-547.164
-9300.09
-543.478
-9165.2
-539.84
-9031.21
-536.252
-8898.1
-532.711
-8765.86
-529.22
-8634.48
-525.776
-8503.95
-522.381
-8374.25
-519.035
-8245.38
-515.736
-8117.31
-512.485
-7990.05
-509.283
-7863.57
-506.128
-7737.87
-503.021
-7612.93
-499.962
-7488.75
-496.95
-7365.3
-493.985
-7242.58
-491.068
-7120.58
-488.197
-6999.29
-485.374
-6878.68
-482.597
-6758.76
-479.867
-6639.51
-477.184
-6520.92
-474.546
-6402.98
-471.955
-6285.67
-469.41
-6168.98
-466.911
-6052.91
-464.457
-5937.44
-462.049
-5822.56
-459.686
-5708.26
-457.368
-5594.53
-455.095
-5481.35
-452.867
-5368.72
-450.684
-5256.63
-448.545
-5145.05
-446.451
-5033.99
-444.401
-4923.44
-442.394
-4813.37
-440.432
-4703.78
-438.513
-4594.66
-436.638
-4486
-434.806
-4377.79
-433.017
-4270.01
-431.271
-4162.66
-429.569
-4055.73
-427.909
-3949.2
-426.291
-3843.06
-424.716
-3737.31
-423.183
-3631.92
-421.693
-3526.91
-420.244
-3422.24
-418.838
-3317.92
-417.473
-3213.92
-416.149
-3110.25
-414.868
-3006.89
-413.627
-2903.83
-412.428
-2801.05
-411.27
-2698.56
-410.153
-2596.34
-409.077
-2494.38
-408.041
-2392.66
-407.047
-2291.18
-406.093
-2189.94
-405.179
-2088.91
-404.306
-1988.09
-403.473
-1887.47
-402.681
-1787.04
-401.928
-1686.78
-401.216
-1586.7
-400.543
-1486.77
-399.911
-1386.99
-399.318
-1287.35
-398.766
-1187.84
-398.253
-1088.44
-397.779
-989.159
-397.346
-889.973
-396.952
-790.876
-396.598
-691.857
-396.284
-592.907
-396.011
-494.015
-395.78
-395.17
-395.594
-296.359
-395.456
-197.57
-395.368
-98.7896
-395.335
-395.358
-982.804
5009.77
-1965.26
5009.58
-2946.91
5006.1
-3927.26
4999.48
-4905.79
4989.65
-5881.97
4976.38
-6855.23
4959.42
-7825
4938.56
-8790.72
4913.62
-9751.78
4884.49
-10707.6
4851.15
-11657.6
4813.73
-12601.1
4772.49
-13537.5
4727.75
-14466.2
4679.7
-15386.5
4628.33
-16297.7
4573.42
-17199.2
4514.64
-18090.1
4451.75
-18969.7
4384.69
-19837.3
4313.58
-20691.9
4238.57
-21532.7
4159.81
-22358.9
4077.49
-23169.6
3991.79
-23964
3903
-24741.4
3811.4
-25500.9
3717.34
-26241.9
3621.2
-26963.7
3523.4
-27665.8
3424.34
-28347.5
3324.38
-29008.6
3223.85
-29648.7
3123.03
-30267.5
3022.21
-30865.1
2921.67
-31441.3
2821.62
-31996.1
2722.29
-32529.9
2623.87
-33042.7
2526.55
-33535
2430.45
-34007
2335.67
-34459.2
2242.22
-34891.9
2150.13
-35305.5
2059.39
-35700.5
1969.99
-36077.2
1881.91
-36436.1
1795.14
-36777.4
1709.67
-37101.5
1625.47
-37408.9
1542.53
-37699.7
1460.81
-37974.3
1380.3
-38233
1300.97
-38475.9
1222.82
-38703.5
1145.85
-38915.9
1070.05
-39113.3
995.433
-39296.1
922.014
-39464.4
849.807
-39618.6
778.83
-39758.8
709.099
-39885.3
640.632
-39998.4
573.447
-40098.3
507.557
-40185.3
442.977
-40259.7
379.719
-40321.8
317.792
-40371.7
257.206
-40409.8
197.967
-40436.3
140.081
-40451.6
83.5502
-40455.8
28.3774
-40449.4
-25.4373
-40432.4
-77.895
-40405.3
-128.998
-40368.2
-178.751
-40321.5
-227.159
-40265.4
-274.228
-40200.2
-319.966
-40126.1
-364.382
-40043.5
-407.486
-39952.5
-449.289
-39853.4
-489.801
-39746.6
-529.037
-39632.2
-567.01
-39510.4
-603.733
-39381.6
-639.222
-39246
-673.492
-39103.8
-706.56
-38955.3
-738.443
-38800.7
-769.157
-38640.1
-798.721
-38474
-827.154
-38302.4
-854.474
-38125.6
-880.699
-37943.7
-905.851
-37757.2
-929.948
-37566
-953.01
-37370.4
-975.058
-37170.7
-996.113
-36967
-1016.19
-36759.5
-1035.32
-36548.4
-1053.52
-36333.9
-1070.8
-36116.1
-1087.2
-35895.2
-1102.72
-35671.5
-1117.4
-35445
-1131.25
-35215.9
-1144.29
-34984.4
-1156.55
-34750.6
-1168.04
-34514.7
-1178.78
-34276.8
-1188.8
-34037.1
-1198.12
-33795.7
-1206.74
-33552.7
-1214.7
-33308.3
-1222.02
-33062.6
-1228.7
-32815.7
-1234.78
-32567.7
-1240.27
-32318.7
-1245.18
-32068.9
-1249.54
-31818.4
-1253.37
-31567.2
-1256.67
-31315.4
-1259.48
-31063.2
-1261.8
-30810.7
-1263.65
-30557.9
-1265.05
-30304.9
-1266.01
-30051.8
-1266.55
-29798.7
-1266.69
-29545.7
-1266.44
-29292.8
-1265.81
-29040.2
-1264.82
-28787.8
-1263.49
-28535.7
-1261.82
-28284.1
-1259.83
-28032.9
-1257.53
-27782.3
-1254.94
-27532.2
-1252.07
-27282.8
-1248.92
-27034.1
-1245.52
-26786.1
-1241.88
-26538.9
-1237.99
-26292.5
-1233.88
-26047
-1229.56
-25802.4
-1225.04
-25558.7
-1220.32
-25316
-1215.41
-25074.4
-1210.34
-24833.8
-1205.09
-24594.3
-1199.69
-24355.9
-1194.14
-24118.6
-1188.46
-23882.5
-1182.64
-23647.6
-1176.69
-23414
-1170.63
-23181.5
-1164.46
-22950.3
-1158.19
-22720.4
-1151.83
-22491.7
-1145.37
-22264.4
-1138.84
-22038.4
-1132.23
-21813.7
-1125.54
-21590.4
-1118.8
-21368.5
-1112
-21147.9
-1105.14
-20928.7
-1098.24
-20710.8
-1091.29
-20494.4
-1084.31
-20279.4
-1077.29
-20065.7
-1070.25
-19853.5
-1063.18
-19642.7
-1056.09
-19433.4
-1048.98
-19225.4
-1041.86
-19018.9
-1034.74
-18813.7
-1027.61
-18610.1
-1020.47
-18407.8
-1013.34
-18206.9
-1006.22
-18007.5
-999.099
-17809.5
-991.992
-17612.9
-984.899
-17417.7
-977.822
-17224
-970.764
-17031.6
-963.727
-16840.6
-956.713
-16651
-949.726
-16462.8
-942.767
-16276
-935.837
-16090.6
-928.94
-15906.5
-922.076
-15723.8
-915.248
-15542.4
-908.457
-15362.4
-901.705
-15183.8
-894.993
-15006.4
-888.323
-14830.4
-881.697
-14655.7
-875.115
-14482.3
-868.578
-14310.2
-862.088
-14139.3
-855.647
-13969.8
-849.254
-13801.5
-842.911
-13634.4
-836.619
-13468.6
-830.379
-13304.1
-824.191
-13140.7
-818.057
-12978.6
-811.977
-12817.7
-805.952
-12658
-799.982
-12499.4
-794.067
-12342
-788.21
-12185.8
-782.409
-12030.7
-776.666
-11876.7
-770.98
-11723.9
-765.353
-11572.2
-759.785
-11421.5
-754.275
-11272
-748.825
-11123.5
-743.434
-10976.1
-738.103
-10829.8
-732.832
-10684.4
-727.621
-10540.2
-722.47
-10396.9
-717.38
-10254.6
-712.35
-10113.3
-707.381
-9973.02
-702.472
-9833.69
-697.624
-9695.31
-692.837
-9557.87
-688.111
-9421.36
-683.446
-9285.77
-678.841
-9151.09
-674.297
-9017.3
-669.814
-8884.39
-665.392
-8752.35
-661.03
-8621.17
-656.728
-8490.83
-652.487
-8361.33
-648.307
-8232.65
-644.186
-8104.79
-640.126
-7977.72
-636.125
-7851.43
-632.184
-7725.92
-628.303
-7601.18
-624.481
-7477.18
-620.719
-7353.92
-617.016
-7231.39
-613.371
-7109.58
-609.786
-6988.47
-606.259
-6868.05
-602.791
-6748.32
-599.38
-6629.25
-596.028
-6510.84
-592.734
-6393.07
-589.497
-6275.95
-586.318
-6159.44
-583.196
-6043.55
-580.131
-5928.26
-577.123
-5813.55
-574.171
-5699.43
-571.276
-5585.87
-568.437
-5472.87
-565.654
-5360.41
-562.927
-5248.49
-560.256
-5137.09
-557.639
-5026.2
-555.078
-4915.82
-552.572
-4805.92
-550.121
-4696.5
-547.724
-4587.55
-545.382
-4479.06
-543.094
-4371.01
-540.859
-4263.4
-538.679
-4156.22
-536.552
-4049.45
-534.478
-3943.08
-532.458
-3837.11
-530.491
-3731.52
-528.576
-3626.3
-526.715
-3521.45
-524.905
-3416.94
-523.148
-3312.78
-521.443
-3208.95
-519.791
-3105.44
-518.189
-3002.23
-516.64
-2899.33
-515.142
-2796.72
-513.696
-2694.38
-512.301
-2592.32
-510.956
-2490.51
-509.663
-2388.96
-508.421
-2287.64
-507.229
-2186.55
-506.088
-2085.68
-504.998
-1985.01
-503.957
-1884.55
-502.967
-1784.27
-502.027
-1684.17
-501.138
-1584.24
-500.298
-1484.47
-499.508
-1384.84
-498.768
-1285.36
-498.077
-1186
-497.436
-1086.76
-496.845
-987.628
-496.303
-888.595
-495.811
-789.651
-495.369
-690.786
-494.977
-591.989
-494.636
-493.25
-494.348
-394.557
-494.116
-295.899
-493.943
-197.263
-493.834
-98.6341
-493.793
-493.822
-970.813
5980.09
-1941.19
5979.46
-2910.71
5975.12
-3878.95
5967.21
-4845.45
5955.64
-5809.73
5940.15
-6771.32
5920.5
-7729.74
5896.47
-8684.5
5867.87
-9635.12
5834.58
-10581.1
5796.57
-11521.8
5753.96
-12456.9
5707
-13385.7
5655.98
-14307.6
5601.07
-15222
5542.24
-16128.4
5479.26
-17026.1
5411.77
-17914.4
5339.52
-18792.7
5262.4
-19660.2
5180.47
-20516
5093.86
-21359.5
5002.71
-22189.7
4907.17
-23005.9
4807.45
-23807.2
4703.79
-24592.8
4596.48
-25361.9
4485.83
-26113.4
4372.26
-26846.7
4256.2
-27561
4138.11
-28255.4
4018.41
-28929.5
3897.5
-29582.7
3775.75
-30214.4
3653.54
-30824.4
3531.26
-31412.4
3409.24
-31978.3
3287.83
-32522.2
3167.34
-33044
3048.09
-33544.2
2930.3
-34023
2814.14
-34480.8
2699.72
-34918.1
2587.09
-35335.3
2476.28
-35732.9
2367.3
-36111.4
2260.14
-36471.4
2154.79
-36813.2
2051.22
-37137.4
1949.37
-37444.4
1849.22
-37734.5
1750.69
-38008.2
1653.74
-38265.9
1558.31
-38507.7
1464.37
-38734
1371.88
-38945.1
1280.85
-39141.2
1191.26
-39322.6
1103.13
-39489.5
1016.47
-39642.2
931.289
-39781
847.613
-39906.1
765.459
-40017.8
684.847
-40116.3
605.794
-40201.9
528.316
-40274.8
452.428
-40335.5
378.141
-40384
305.465
-40420.7
234.409
-40445.8