/*--------------------------------*- C++ -*----------------------------------*\
| =========                 |                                                 |
| \\      /  F ield         | OpenFOAM: The Open Source CFD Toolbox           |
|  \\    /   O peration     | Version:  2212                                  |
|   \\  /    A nd           | Website:  www.openfoam.com                      |
|    \\/     M anipulation  |                                                 |
\*---------------------------------------------------------------------------*/
FoamFile
{
    version     2.0;
    format      ascii;
    arch        "LSB;label=32;scalar=64";
    class       volScalarField;
    location    "550";
    object      p_rgh_0;
}
// * * * * * * * * * * * * * * * * * * * * * * * * * * * * * * * * * * * * * //

dimensions      [1 -1 -2 0 0 0 0];

internalField   nonuniform List<scalar> 
204800
(
41.5512
41.5431
41.5269
41.5028
41.4705
41.4304
41.3825
41.3271
41.2645
41.195
41.1191
41.037
40.949
40.8554
40.7563
40.6521
40.5429
40.4288
40.3101
40.1869
40.0593
39.9276
39.7918
39.6522
39.5089
39.362
39.2118
39.0583
38.9018
38.7423
38.5801
38.4153
38.248
38.0784
37.9067
37.7329
37.5573
37.38
37.2011
37.0208
36.8393
36.6566
36.4729
36.2883
36.1031
35.9172
35.7309
35.5442
35.3574
35.1705
34.9836
34.7968
34.6103
34.4243
34.2387
34.0537
33.8695
33.686
33.5035
33.322
33.1416
32.9624
32.7846
32.6081
32.4331
32.2596
32.0878
31.9177
31.7494
31.583
31.4184
31.2559
31.0954
30.937
30.7808
30.6269
30.4752
30.3258
30.1788
30.0342
29.8921
29.7524
29.6153
29.4808
29.3488
29.2195
29.0928
28.9688
28.8475
28.7289
28.6131
28.4999
28.3896
28.282
28.1772
28.0751
27.9759
27.8794
27.7857
27.6948
27.6067
27.5214
27.4389
27.3591
27.2821
27.2078
27.1362
27.0674
27.0013
26.9378
26.877
26.8189
26.7634
26.7105
26.6602
26.6125
26.5673
26.5246
26.4844
26.4466
26.4113
26.3784
26.3478
26.3196
26.2937
26.2701
26.2487
26.2296
26.2126
26.1977
26.185
26.1744
26.1658
26.1593
26.1547
26.152
26.1513
26.1524
26.1554
26.1602
26.1667
26.175
26.1849
26.1965
26.2098
26.2246
26.241
26.2589
26.2783
26.2991
26.3214
26.345
26.3699
26.3962
26.4237
26.4525
26.4825
26.5136
26.5459
26.5793
26.6138
26.6493
26.6859
26.7234
26.7618
26.8012
26.8414
26.8825
26.9245
26.9672
27.0107
27.0549
27.0998
27.1454
27.1917
27.2386
27.2861
27.3342
27.3828
27.4319
27.4815
27.5316
27.5821
27.6331
27.6844
27.7362
27.7882
27.8406
27.8933
27.9463
27.9995
28.053
28.1067
28.1606
28.2147
28.2689
28.3233
28.3778
28.4324
28.4871
28.5418
28.5966
28.6515
28.7063
28.7611
28.816
28.8707
28.9255
28.9801
29.0347
29.0892
29.1436
29.1978
29.252
29.3059
29.3597
29.4133
29.4667
29.52
29.573
29.6257
29.6783
29.7306
29.7826
29.8343
29.8858
29.937
29.9878
30.0384
30.0886
30.1385
30.1881
30.2373
30.2861
30.3346
30.3827
30.4304
30.4777
30.5246
30.5712
30.6173
30.6629
30.7082
30.753
30.7974
30.8413
30.8847
30.9277
30.9703
31.0123
31.0539
31.095
31.1356
31.1757
31.2153
31.2545
31.293
31.3311
31.3687
31.4057
31.4422
31.4782
31.5136
31.5485
31.5828
31.6166
31.6499
31.6826
31.7147
31.7462
31.7772
31.8076
31.8375
31.8667
31.8954
31.9235
31.951
31.978
32.0043
32.03
32.0552
32.0797
32.1037
32.127
32.1497
32.1719
32.1934
32.2143
32.2346
32.2542
32.2733
32.2917
32.3095
32.3267
32.3433
32.3592
32.3745
32.3892
32.4033
32.4167
32.4295
32.4417
32.4532
32.4641
32.4743
32.4839
32.4929
32.5013
32.509
32.516
32.5224
32.5282
32.5334
32.5379
32.5417
32.5449
32.5475
32.5494
32.5507
32.5514
41.5027
41.4929
41.4735
41.4453
41.4086
41.3643
41.3127
41.2543
41.1893
41.1182
41.041
40.9581
40.8696
40.7756
40.6764
40.5721
40.4629
40.3489
40.2302
40.1071
39.9797
39.8481
39.7126
39.5731
39.43
39.2834
39.1334
38.9801
38.8238
38.6646
38.5027
38.3381
38.1711
38.0018
37.8303
37.6569
37.4816
37.3045
37.126
36.946
36.7647
36.5824
36.399
36.2148
36.0298
35.8443
35.6583
35.472
35.2854
35.0988
34.9123
34.7259
34.5397
34.354
34.1687
33.9841
33.8002
33.6171
33.4349
33.2537
33.0737
32.8948
32.7173
32.5411
32.3664
32.1933
32.0218
31.852
31.684
31.5179
31.3537
31.1914
31.0313
30.8732
30.7173
30.5636
30.4122
30.2631
30.1164
29.9721
29.8302
29.6909
29.554
29.4197
29.288
29.159
29.0325
28.9088
28.7877
28.6694
28.5537
28.4408
28.3307
28.2233
28.1187
28.0169
27.9178
27.8216
27.7281
27.6374
27.5495
27.4643
27.3819
27.3023
27.2255
27.1513
27.08
27.0113
26.9453
26.882
26.8213
26.7634
26.708
26.6552
26.605
26.5574
26.5123
26.4697
26.4296
26.3919
26.3567
26.3239
26.2934
26.2652
26.2394
26.2159
26.1946
26.1755
26.1585
26.1438
26.1311
26.1205
26.112
26.1054
26.1009
26.0982
26.0975
26.0987
26.1017
26.1065
26.113
26.1213
26.1313
26.1429
26.1561
26.1709
26.1873
26.2052
26.2246
26.2454
26.2676
26.2912
26.3161
26.3424
26.3699
26.3986
26.4285
26.4597
26.4919
26.5253
26.5597
26.5952
26.6316
26.6691
26.7075
26.7468
26.787
26.828
26.8699
26.9126
26.956
27.0001
27.045
27.0906
27.1368
27.1836
27.231
27.279
27.3275
27.3765
27.4261
27.4761
27.5265
27.5774
27.6287
27.6803
27.7323
27.7846
27.8372
27.8901
27.9433
27.9967
28.0503
28.1041
28.1581
28.2122
28.2665
28.3209
28.3754
28.43
28.4846
28.5394
28.5941
28.6488
28.7036
28.7583
28.813
28.8676
28.9222
28.9767
29.0311
29.0853
29.1395
29.1935
29.2474
29.3011
29.3546
29.4079
29.461
29.514
29.5666
29.6191
29.6713
29.7232
29.7749
29.8262
29.8773
29.9281
29.9785
30.0287
30.0785
30.1279
30.1771
30.2258
30.2742
30.3222
30.3698
30.4171
30.4639
30.5103
30.5564
30.602
30.6471
30.6919
30.7361
30.78
30.8234
30.8663
30.9087
30.9507
30.9922
31.0333
31.0738
31.1138
31.1534
31.1924
31.2309
31.2689
31.3064
31.3434
31.3798
31.4157
31.4511
31.4859
31.5202
31.5539
31.5871
31.6197
31.6518
31.6833
31.7142
31.7446
31.7743
31.8035
31.8322
31.8602
31.8877
31.9146
31.9409
31.9665
31.9916
32.0161
32.04
32.0633
32.086
32.1081
32.1296
32.1504
32.1707
32.1903
32.2093
32.2277
32.2455
32.2627
32.2792
32.2951
32.3104
32.325
32.3391
32.3525
32.3652
32.3774
32.3889
32.3997
32.41
32.4196
32.4285
32.4369
32.4446
32.4516
32.458
32.4638
32.4689
32.4734
32.4773
32.4805
32.483
32.485
32.4863
32.4869
41.487
41.4774
41.4581
41.4301
41.3936
41.3494
41.2978
41.2394
41.1744
41.1032
41.026
40.9429
40.8542
40.7601
40.6608
40.5563
40.4469
40.3328
40.214
40.0908
39.9633
39.8316
39.6959
39.5564
39.4132
39.2665
39.1164
38.9631
38.8067
38.6474
38.4854
38.3208
38.1537
37.9844
37.8129
37.6394
37.464
37.287
37.1084
36.9283
36.7471
36.5647
36.3813
36.197
36.012
35.8265
35.6405
35.4542
35.2676
35.081
34.8944
34.708
34.5219
34.3361
34.1509
33.9663
33.7823
33.5992
33.4171
33.2359
33.0559
32.8771
32.6995
32.5234
32.3487
32.1756
32.0042
31.8344
31.6664
31.5003
31.3361
31.1739
31.0138
30.8557
30.6999
30.5462
30.3949
30.2458
30.0991
29.9549
29.8131
29.6737
29.537
29.4027
29.2711
29.142
29.0157
28.892
28.7709
28.6526
28.537
28.4242
28.3141
28.2068
28.1022
28.0004
27.9015
27.8052
27.7118
27.6212
27.5333
27.4482
27.3659
27.2864
27.2095
27.1355
27.0641
26.9955
26.9296
26.8663
26.8058
26.7478
26.6925
26.6398
26.5897
26.5421
26.4971
26.4545
26.4145
26.3769
26.3417
26.3089
26.2785
26.2504
26.2246
26.2011
26.1799
26.1608
26.144
26.1292
26.1166
26.1061
26.0976
26.0911
26.0866
26.084
26.0834
26.0846
26.0876
26.0924
26.099
26.1074
26.1174
26.129
26.1423
26.1572
26.1736
26.1915
26.2109
26.2318
26.2541
26.2777
26.3027
26.3289
26.3565
26.3853
26.4152
26.4464
26.4787
26.5121
26.5465
26.582
26.6185
26.656
26.6945
26.7338
26.774
26.8151
26.857
26.8997
26.9431
26.9873
27.0322
27.0778
27.124
27.1708
27.2183
27.2663
27.3148
27.3639
27.4135
27.4635
27.514
27.5649
27.6162
27.6678
27.7198
27.7721
27.8248
27.8777
27.9309
27.9843
28.0379
28.0917
28.1457
28.1999
28.2542
28.3086
28.3631
28.4177
28.4724
28.5271
28.5818
28.6366
28.6913
28.7461
28.8008
28.8554
28.91
28.9645
29.0189
29.0732
29.1273
29.1814
29.2352
29.2889
29.3425
29.3958
29.4489
29.5019
29.5545
29.607
29.6592
29.7111
29.7628
29.8141
29.8652
29.916
29.9665
30.0166
30.0664
30.1159
30.165
30.2138
30.2622
30.3102
30.3578
30.405
30.4519
30.4983
30.5443
30.5899
30.6351
30.6798
30.7241
30.7679
30.8113
30.8543
30.8967
30.9387
30.9802
31.0212
31.0618
31.1018
31.1413
31.1804
31.2189
31.2569
31.2944
31.3313
31.3678
31.4037
31.439
31.4739
31.5081
31.5419
31.575
31.6077
31.6397
31.6712
31.7021
31.7325
31.7623
31.7915
31.8201
31.8482
31.8756
31.9025
31.9288
31.9545
31.9796
32.0041
32.028
32.0513
32.074
32.096
32.1175
32.1384
32.1586
32.1782
32.1973
32.2157
32.2334
32.2506
32.2671
32.283
32.2983
32.313
32.327
32.3404
32.3532
32.3653
32.3768
32.3877
32.3979
32.4075
32.4165
32.4248
32.4325
32.4395
32.4459
32.4517
32.4568
32.4613
32.4652
32.4684
32.471
32.4729
32.4742
32.4748
41.4357
41.4254
41.405
41.3754
41.3371
41.291
41.2376
41.1775
41.1111
41.0386
40.9603
40.8764
40.7871
40.6925
40.5927
40.488
40.3783
40.264
40.1451
40.0218
39.8942
39.7624
39.6267
39.4872
39.3441
39.1974
39.0473
38.8941
38.7378
38.5786
38.4167
38.2521
38.0852
37.9159
37.7446
37.5712
37.396
37.2191
37.0406
36.8608
36.6797
36.4974
36.3142
36.1301
35.9453
35.76
35.5742
35.388
35.2017
35.0153
34.8289
34.6427
34.4568
34.2713
34.0862
33.9018
33.7181
33.5353
33.3533
33.1724
32.9926
32.814
32.6367
32.4608
32.2863
32.1135
31.9422
31.7727
31.605
31.4391
31.2751
31.1132
30.9532
30.7954
30.6398
30.4864
30.3352
30.1864
30.04
29.8959
29.7543
29.6152
29.4787
29.3446
29.2132
29.0844
28.9582
28.8347
28.7139
28.5958
28.4805
28.3678
28.2579
28.1508
28.0464
27.9449
27.846
27.75
27.6568
27.5663
27.4786
27.3937
27.3116
27.2322
27.1556
27.0817
27.0105
26.942
26.8763
26.8132
26.7527
26.695
26.6398
26.5872
26.5372
26.4898
26.4449
26.4025
26.3625
26.3251
26.29
26.2573
26.227
26.1991
26.1734
26.15
26.1288
26.1099
26.0931
26.0785
26.066
26.0555
26.0471
26.0407
26.0363
26.0338
26.0332
26.0344
26.0375
26.0424
26.0491
26.0575
26.0675
26.0793
26.0926
26.1075
26.124
26.1419
26.1614
26.1823
26.2046
26.2282
26.2532
26.2795
26.3071
26.3359
26.3659
26.397
26.4293
26.4627
26.4972
26.5327
26.5692
26.6067
26.6451
26.6845
26.7247
26.7658
26.8077
26.8503
26.8938
26.938
26.9828
27.0284
27.0746
27.1214
27.1688
27.2168
27.2653
27.3144
27.3639
27.4139
27.4644
27.5152
27.5665
27.6181
27.6701
27.7223
27.7749
27.8278
27.8809
27.9343
27.9879
28.0417
28.0956
28.1498
28.204
28.2584
28.3128
28.3674
28.422
28.4767
28.5314
28.5861
28.6408
28.6955
28.7501
28.8047
28.8592
28.9137
28.968
29.0222
29.0764
29.1303
29.1841
29.2378
29.2913
29.3445
29.3976
29.4505
29.5031
29.5555
29.6076
29.6595
29.7111
29.7624
29.8134
29.8642
29.9146
29.9646
30.0144
30.0638
30.1129
30.1616
30.2099
30.2579
30.3054
30.3526
30.3994
30.4458
30.4917
30.5373
30.5824
30.6271
30.6713
30.7151
30.7584
30.8013
30.8437
30.8856
30.9271
30.968
31.0085
31.0485
31.088
31.127
31.1654
31.2034
31.2408
31.2778
31.3141
31.35
31.3853
31.4201
31.4543
31.488
31.5211
31.5537
31.5857
31.6172
31.6481
31.6784
31.7081
31.7373
31.7659
31.7939
31.8213
31.8482
31.8744
31.9001
31.9251
31.9496
31.9735
31.9967
32.0194
32.0414
32.0629
32.0837
32.1039
32.1235
32.1425
32.1609
32.1787
32.1958
32.2123
32.2282
32.2434
32.2581
32.2721
32.2855
32.2982
32.3103
32.3218
32.3327
32.3429
32.3525
32.3614
32.3697
32.3774
32.3845
32.3909
32.3966
32.4017
32.4062
32.4101
32.4133
32.4158
32.4178
32.4191
32.4197
41.4092
41.3992
41.3791
41.3499
41.3119
41.2662
41.213
41.153
41.0866
41.014
40.9356
40.8515
40.7619
40.667
40.567
40.4619
40.352
40.2374
40.1183
39.9947
39.8669
39.7349
39.599
39.4593
39.3159
39.1691
39.0188
38.8654
38.709
38.5496
38.3876
38.2229
38.0558
37.8865
37.715
37.5415
37.3662
37.1892
37.0107
36.8307
36.6495
36.4672
36.2839
36.0998
35.9149
35.7295
35.5436
35.3575
35.1711
34.9846
34.7982
34.612
34.4261
34.2405
34.0555
33.871
33.6873
33.5044
33.3225
33.1416
32.9618
32.7832
32.6059
32.43
32.2556
32.0827
31.9115
31.742
31.5743
31.4085
31.2446
31.0826
30.9228
30.765
30.6094
30.4561
30.305
30.1562
30.0098
29.8659
29.7243
29.5853
29.4488
29.3149
29.1835
29.0548
28.9287
28.8053
28.6846
28.5665
28.4512
28.3387
28.2289
28.1218
28.0176
27.9161
27.8174
27.7215
27.6283
27.538
27.4504
27.3656
27.2835
27.2042
27.1277
27.0539
26.9828
26.9145
26.8488
26.7858
26.7255
26.6678
26.6128
26.5603
26.5104
26.4631
26.4183
26.376
26.3361
26.2988
26.2638
26.2313
26.2011
26.1732
26.1476
26.1243
26.1033
26.0844
26.0678
26.0532
26.0408
26.0305
26.0222
26.0159
26.0115
26.0091
26.0086
26.01
26.0132
26.0182
26.0249
26.0334
26.0435
26.0554
26.0688
26.0838
26.1003
26.1184
26.1379
26.1589
26.1813
26.205
26.2301
26.2565
26.2841
26.313
26.3431
26.3743
26.4067
26.4402
26.4747
26.5103
26.5469
26.5844
26.6229
26.6623
26.7026
26.7437
26.7857
26.8284
26.8719
26.9162
26.9611
27.0067
27.053
27.0998
27.1473
27.1954
27.2439
27.293
27.3426
27.3927
27.4432
27.4941
27.5454
27.597
27.649
27.7014
27.754
27.8069
27.8601
27.9135
27.9671
28.0209
28.0749
28.1291
28.1834
28.2378
28.2923
28.3469
28.4015
28.4562
28.5109
28.5657
28.6204
28.6751
28.7298
28.7844
28.8389
28.8934
28.9478
29.002
29.0561
29.1101
29.164
29.2176
29.2711
29.3244
29.3775
29.4304
29.483
29.5354
29.5876
29.6395
29.6911
29.7424
29.7935
29.8442
29.8946
29.9447
29.9945
30.0439
30.093
30.1417
30.19
30.238
30.2856
30.3328
30.3795
30.4259
30.4719
30.5174
30.5626
30.6072
30.6515
30.6953
30.7386
30.7815
30.8239
30.8658
30.9073
30.9483
30.9887
31.0287
31.0682
31.1072
31.1457
31.1836
31.2211
31.258
31.2944
31.3302
31.3656
31.4003
31.4346
31.4683
31.5014
31.534
31.566
31.5975
31.6283
31.6587
31.6884
31.7176
31.7462
31.7742
31.8016
31.8284
31.8547
31.8803
31.9054
31.9299
31.9537
31.977
31.9997
32.0217
32.0431
32.064
32.0842
32.1038
32.1228
32.1412
32.1589
32.176
32.1926
32.2084
32.2237
32.2383
32.2523
32.2657
32.2785
32.2906
32.3021
32.3129
32.3231
32.3327
32.3417
32.35
32.3577
32.3647
32.3711
32.3769
32.382
32.3865
32.3903
32.3935
32.3961
32.398
32.3993
32.3999
41.3576
41.3475
41.327
41.2973
41.2587
41.2121
41.1581
41.0973
41.03
40.9566
40.8774
40.7926
40.7023
40.6069
40.5063
40.4008
40.2905
40.1756
40.0561
39.9323
39.8042
39.6721
39.536
39.3961
39.2526
39.1056
38.9552
38.8017
38.6452
38.4858
38.3237
38.159
37.9919
37.8225
37.651
37.4775
37.3022
37.1252
36.9467
36.7668
36.5856
36.4033
36.2201
36.036
35.8512
35.6659
35.4801
35.294
35.1077
34.9213
34.735
34.5489
34.3631
34.1776
33.9927
33.8084
33.6248
33.4421
33.2602
33.0795
32.8998
32.7214
32.5442
32.3685
32.1942
32.0215
31.8505
31.6812
31.5136
31.3479
31.1842
31.0224
30.8627
30.7052
30.5498
30.3966
30.2457
30.0971
29.9509
29.8071
29.6658
29.5269
29.3906
29.2568
29.1257
28.9971
28.8712
28.748
28.6275
28.5097
28.3945
28.2822
28.1726
28.0657
27.9617
27.8603
27.7618
27.6661
27.5731
27.483
27.3956
27.3109
27.2291
27.15
27.0736
27
26.9291
26.8609
26.7954
26.7326
26.6725
26.615
26.5601
26.5078
26.4581
26.4109
26.3662
26.3241
26.2844
26.2472
26.2124
26.18
26.15
26.1223
26.0968
26.0737
26.0528
26.0341
26.0175
26.0031
25.9908
25.9806
25.9724
25.9663
25.9621
25.9598
25.9594
25.9609
25.9642
25.9693
25.9761
25.9847
25.995
26.0069
26.0204
26.0355
26.0521
26.0703
26.0899
26.111
26.1334
26.1573
26.1824
26.2089
26.2366
26.2655
26.2957
26.327
26.3594
26.393
26.4276
26.4632
26.4998
26.5375
26.576
26.6155
26.6558
26.697
26.739
26.7817
26.8253
26.8695
26.9145
26.9602
27.0065
27.0534
27.1009
27.1489
27.1975
27.2466
27.2962
27.3463
27.3968
27.4477
27.4991
27.5507
27.6028
27.6551
27.7077
27.7607
27.8138
27.8672
27.9209
27.9747
28.0287
28.0828
28.1371
28.1915
28.246
28.3006
28.3552
28.4099
28.4646
28.5193
28.5741
28.6288
28.6834
28.738
28.7925
28.847
28.9013
28.9556
29.0097
29.0637
29.1175
29.1711
29.2246
29.2779
29.3309
29.3838
29.4364
29.4888
29.5409
29.5928
29.6444
29.6957
29.7467
29.7974
29.8478
29.8978
29.9476
29.997
30.046
30.0947
30.143
30.1909
30.2385
30.2857
30.3324
30.3788
30.4247
30.4702
30.5153
30.56
30.6042
30.6479
30.6912
30.7341
30.7765
30.8184
30.8598
30.9007
30.9412
30.9811
31.0206
31.0596
31.098
31.1359
31.1733
31.2102
31.2466
31.2824
31.3177
31.3525
31.3867
31.4203
31.4534
31.486
31.518
31.5494
31.5803
31.6106
31.6403
31.6694
31.698
31.726
31.7534
31.7802
31.8064
31.8321
31.8571
31.8815
31.9054
31.9286
31.9513
31.9733
31.9947
32.0155
32.0357
32.0553
32.0743
32.0926
32.1104
32.1275
32.144
32.1598
32.1751
32.1897
32.2037
32.2171
32.2298
32.2419
32.2534
32.2642
32.2744
32.284
32.293
32.3013
32.3089
32.316
32.3224
32.3281
32.3332
32.3377
32.3416
32.3448
32.3473
32.3492
32.3505
32.3512
41.3241
41.3141
41.294
41.2647
41.2265
41.1803
41.1266
41.0659
40.9986
40.9251
40.8457
40.7606
40.6701
40.5743
40.4733
40.3675
40.2568
40.1415
40.0217
39.8975
39.7691
39.6366
39.5002
39.36
39.2162
39.0689
38.9183
38.7645
38.6077
38.4481
38.2857
38.1208
37.9535
37.7839
37.6122
37.4386
37.2631
37.0859
36.9072
36.7272
36.5459
36.3635
36.1801
35.9959
35.811
35.6255
35.4396
35.2534
35.0671
34.8806
34.6943
34.5081
34.3222
34.1367
33.9517
33.7673
33.5837
33.4009
33.2191
33.0383
32.8586
32.6802
32.503
32.3273
32.153
31.9803
31.8093
31.64
31.4725
31.3069
31.1431
30.9814
30.8218
30.6643
30.5089
30.3558
30.2049
30.0564
29.9103
29.7666
29.6253
29.4866
29.3503
29.2167
29.0856
28.9572
28.8314
28.7082
28.5878
28.4701
28.3551
28.2429
28.1334
28.0266
27.9227
27.8215
27.7231
27.6275
27.5347
27.4446
27.3574
27.2729
27.1912
27.1122
27.036
26.9625
26.8918
26.8237
26.7584
26.6957
26.6357
26.5784
26.5236
26.4715
26.4219
26.3749
26.3304
26.2884
26.2489
26.2118
26.1772
26.1449
26.115
26.0875
26.0622
26.0392
26.0185
25.9999
25.9835
25.9693
25.9571
25.9471
25.939
25.933
25.9289
25.9268
25.9266
25.9282
25.9316
25.9369
25.9439
25.9526
25.963
25.975
25.9887
26.0039
26.0207
26.039
26.0587
26.0799
26.1025
26.1265
26.1517
26.1783
26.2062
26.2352
26.2655
26.2969
26.3295
26.3631
26.3978
26.4336
26.4703
26.5081
26.5467
26.5863
26.6267
26.668
26.7101
26.7529
26.7966
26.8409
26.886
26.9317
26.9781
27.0251
27.0727
27.1209
27.1695
27.2187
27.2684
27.3186
27.3692
27.4202
27.4715
27.5233
27.5754
27.6278
27.6805
27.7335
27.7867
27.8402
27.8939
27.9478
28.0018
28.056
28.1104
28.1648
28.2194
28.274
28.3287
28.3834
28.4382
28.493
28.5477
28.6025
28.6572
28.7118
28.7664
28.8209
28.8753
28.9296
28.9837
29.0377
29.0916
29.1453
29.1988
29.2521
29.3052
29.358
29.4107
29.4631
29.5153
29.5671
29.6188
29.6701
29.7211
29.7719
29.8223
29.8724
29.9221
29.9715
30.0206
30.0693
30.1176
30.1656
30.2132
30.2603
30.3071
30.3535
30.3994
30.445
30.4901
30.5347
30.579
30.6227
30.666
30.7089
30.7513
30.7932
30.8346
30.8756
30.9161
30.956
30.9955
31.0345
31.0729
31.1109
31.1483
31.1852
31.2215
31.2574
31.2927
31.3274
31.3616
31.3953
31.4284
31.461
31.493
31.5244
31.5553
31.5856
31.6153
31.6444
31.673
31.701
31.7284
31.7552
31.7814
31.8071
31.8321
31.8566
31.8804
31.9036
31.9263
31.9483
31.9697
31.9906
32.0108
32.0303
32.0493
32.0677
32.0854
32.1025
32.119
32.1349
32.1501
32.1648
32.1788
32.1921
32.2049
32.217
32.2284
32.2393
32.2495
32.2591
32.268
32.2763
32.284
32.291
32.2974
32.3032
32.3083
32.3128
32.3166
32.3198
32.3224
32.3243
32.3256
32.3262
41.273
41.2631
41.2429
41.2135
41.1752
41.1288
41.0747
41.0135
40.9457
40.8717
40.7917
40.706
40.6149
40.5185
40.417
40.3106
40.1995
40.0837
39.9634
39.8388
39.7101
39.5772
39.4405
39.3
39.1559
39.0084
38.8575
38.7035
38.5465
38.3867
38.2241
38.059
37.8915
37.7218
37.55
37.3762
37.2006
37.0233
36.8445
36.6644
36.483
36.3005
36.1171
35.9328
35.7479
35.5624
35.3765
35.1903
35.0039
34.8174
34.631
34.4449
34.259
34.0735
33.8886
33.7042
33.5207
33.3379
33.1561
32.9754
32.7958
32.6174
32.4404
32.2647
32.0905
31.918
31.747
31.5778
31.4104
31.2449
31.0813
30.9197
30.7602
30.6028
30.4476
30.2946
30.1439
29.9956
29.8496
29.706
29.5649
29.4263
29.2902
29.1568
29.0259
28.8976
28.772
28.649
28.5288
28.4112
28.2964
28.1844
28.0751
27.9685
27.8648
27.7638
27.6656
27.5702
27.4775
27.3877
27.3006
27.2163
27.1348
27.056
26.98
26.9068
26.8362
26.7684
26.7032
26.6408
26.581
26.5238
26.4692
26.4173
26.3679
26.3211
26.2768
26.235
26.1957
26.1588
26.1244
26.0923
26.0626
26.0352
26.0101
25.9873
25.9668
25.9484
25.9322
25.9181
25.9061
25.8963
25.8884
25.8825
25.8786
25.8767
25.8766
25.8784
25.882
25.8874
25.8946
25.9034
25.914
25.9262
25.94
25.9554
25.9723
25.9907
26.0106
26.0319
26.0546
26.0787
26.1041
26.1308
26.1588
26.188
26.2184
26.2499
26.2826
26.3163
26.3512
26.387
26.4239
26.4617
26.5004
26.5401
26.5806
26.622
26.6642
26.7072
26.7509
26.7953
26.8405
26.8863
26.9328
26.9798
27.0275
27.0757
27.1245
27.1737
27.2235
27.2737
27.3243
27.3754
27.4268
27.4786
27.5308
27.5833
27.636
27.6891
27.7423
27.7959
27.8496
27.9035
27.9576
28.0118
28.0662
28.1207
28.1753
28.23
28.2847
28.3395
28.3942
28.449
28.5038
28.5586
28.6133
28.668
28.7226
28.7771
28.8315
28.8858
28.9399
28.994
29.0478
29.1015
29.155
29.2083
29.2615
29.3143
29.367
29.4194
29.4716
29.5235
29.5751
29.6264
29.6775
29.7282
29.7786
29.8287
29.8784
29.9279
29.9769
30.0256
30.0739
30.1219
30.1695
30.2166
30.2634
30.3098
30.3557
30.4012
30.4463
30.491
30.5352
30.5789
30.6223
30.6651
30.7075
30.7494
30.7908
30.8318
30.8722
30.9122
30.9516
30.9906
31.029
31.0669
31.1043
31.1412
31.1776
31.2134
31.2487
31.2834
31.3176
31.3513
31.3844
31.4169
31.4489
31.4803
31.5112
31.5415
31.5712
31.6003
31.6289
31.6568
31.6842
31.711
31.7373
31.7629
31.7879
31.8123
31.8362
31.8594
31.882
31.904
31.9255
31.9463
31.9665
31.986
32.005
32.0233
32.0411
32.0582
32.0747
32.0905
32.1058
32.1204
32.1344
32.1477
32.1605
32.1726
32.184
32.1949
32.2051
32.2146
32.2236
32.2319
32.2395
32.2466
32.253
32.2587
32.2638
32.2683
32.2721
32.2753
32.2779
32.2798
32.2811
32.2817
41.2348
41.2249
41.2051
41.1761
41.1381
41.092
41.038
40.977
40.9092
40.835
40.7548
40.6688
40.5773
40.4806
40.3787
40.2718
40.1602
40.044
39.9233
39.7982
39.669
39.5357
39.3986
39.2577
39.1132
38.9653
38.814
38.6597
38.5023
38.3422
38.1793
38.0139
37.8461
37.6761
37.504
37.3299
37.154
36.9765
36.7975
36.6172
36.4356
36.2529
36.0692
35.8848
35.6997
35.514
35.3279
35.1416
34.955
34.7685
34.582
34.3957
34.2097
34.0241
33.8391
33.6547
33.471
33.2882
33.1064
32.9256
32.7459
32.5675
32.3904
32.2147
32.0406
31.868
31.697
31.5279
31.3605
31.195
31.0314
30.8698
30.7104
30.553
30.3979
30.2449
30.0943
29.946
29.8001
29.6566
29.5156
29.3771
29.2411
29.1077
28.9769
28.8488
28.7233
28.6005
28.4803
28.3629
28.2482
28.1363
28.0272
27.9208
27.8172
27.7163
27.6183
27.523
27.4306
27.3409
27.254
27.1699
27.0885
27.0099
26.9341
26.861
26.7906
26.723
26.658
26.5958
26.5361
26.4792
26.4248
26.3731
26.3239
26.2773
26.2332
26.1916
26.1524
26.1158
26.0815
26.0496
26.0201
25.993
25.9681
25.9455
25.9251
25.9069
25.8909
25.877
25.8653
25.8556
25.8479
25.8422
25.8385
25.8368
25.8369
25.8389
25.8427
25.8483
25.8556
25.8647
25.8754
25.8878
25.9018
25.9173
25.9344
25.953
25.9731
25.9946
26.0175
26.0417
26.0673
26.0942
26.1223
26.1517
26.1822
26.2139
26.2467
26.2807
26.3156
26.3516
26.3887
26.4266
26.4655
26.5053
26.546
26.5875
26.6298
26.6729
26.7168
26.7614
26.8066
26.8526
26.8992
26.9464
26.9942
27.0425
27.0914
27.1407
27.1906
27.2409
27.2917
27.3428
27.3944
27.4463
27.4986
27.5511
27.604
27.6571
27.7105
27.7641
27.8179
27.8719
27.9261
27.9804
28.0349
28.0895
28.1441
28.1989
28.2537
28.3085
28.3634
28.4182
28.4731
28.5279
28.5827
28.6374
28.6921
28.7467
28.8011
28.8555
28.9097
28.9638
29.0177
29.0715
29.125
29.1784
29.2315
29.2845
29.3372
29.3896
29.4418
29.4938
29.5454
29.5968
29.6479
29.6987
29.7491
29.7992
29.849
29.8985
29.9476
29.9963
30.0447
30.0926
30.1402
30.1874
30.2342
30.2806
30.3266
30.3721
30.4173
30.4619
30.5062
30.55
30.5933
30.6362
30.6786
30.7205
30.7619
30.8029
30.8434
30.8833
30.9228
30.9618
31.0002
31.0382
31.0756
31.1125
31.1488
31.1847
31.22
31.2547
31.2889
31.3226
31.3557
31.3883
31.4203
31.4517
31.4826
31.5128
31.5426
31.5717
31.6003
31.6283
31.6557
31.6825
31.7087
31.7343
31.7594
31.7838
31.8076
31.8309
31.8535
31.8755
31.8969
31.9177
31.9379
31.9575
31.9765
31.9948
32.0126
32.0297
32.0462
32.062
32.0773
32.0919
32.1059
32.1192
32.132
32.1441
32.1556
32.1664
32.1766
32.1862
32.1951
32.2034
32.2111
32.2181
32.2245
32.2303
32.2354
32.2398
32.2437
32.2469
32.2494
32.2514
32.2526
32.2533
41.1844
41.1746
41.1548
41.1259
41.0879
41.0417
40.9877
40.9264
40.8582
40.7837
40.7029
40.6164
40.5244
40.427
40.3246
40.2172
40.105
39.9882
39.8669
39.7414
39.6117
39.478
39.3404
39.199
39.0541
38.9058
38.7542
38.5995
38.4418
38.2813
38.1182
37.9525
37.7844
37.6141
37.4417
37.2674
37.0913
36.9136
36.7344
36.5538
36.372
36.1892
36.0054
35.8208
35.6355
35.4497
35.2635
35.0771
34.8904
34.7038
34.5172
34.3308
34.1447
33.9591
33.774
33.5896
33.4059
33.2231
33.0412
32.8604
32.6808
32.5024
32.3253
32.1497
31.9755
31.803
31.6321
31.4629
31.2956
31.1302
30.9667
30.8052
30.6458
30.4886
30.3335
30.1807
30.0302
29.882
29.7363
29.5929
29.452
29.3137
29.1778
29.0446
28.914
28.786
28.6606
28.538
28.418
28.3008
28.1863
28.0746
27.9656
27.8594
27.756
27.6553
27.5575
27.4625
27.3702
27.2807
27.194
27.1101
27.029
26.9506
26.875
26.8022
26.732
26.6646
26.5999
26.5378
26.4784
26.4217
26.3676
26.316
26.2671
26.2207
26.1768
26.1355
26.0966
26.0601
26.0261
25.9945
25.9652
25.9382
25.9136
25.8912
25.8711
25.8531
25.8373
25.8237
25.8121
25.8027
25.7952
25.7898
25.7863
25.7847
25.7851
25.7872
25.7913
25.7971
25.8046
25.8139
25.8248
25.8374
25.8516
25.8673
25.8846
25.9034
25.9237
25.9453
25.9684
25.9928
26.0186
26.0457
26.074
26.1035
26.1342
26.1661
26.1991
26.2331
26.2683
26.3045
26.3416
26.3797
26.4188
26.4587
26.4995
26.5412
26.5837
26.6269
26.6709
26.7156
26.761
26.8071
26.8538
26.9011
26.949
26.9975
27.0465
27.0959
27.1459
27.1963
27.2472
27.2985
27.3501
27.4021
27.4545
27.5071
27.5601
27.6133
27.6668
27.7205
27.7744
27.8284
27.8827
27.9371
27.9916
28.0463
28.101
28.1558
28.2107
28.2656
28.3205
28.3754
28.4304
28.4852
28.5401
28.5949
28.6496
28.7042
28.7587
28.8131
28.8674
28.9215
28.9755
29.0293
29.0829
29.1363
29.1895
29.2424
29.2952
29.3477
29.3999
29.4519
29.5035
29.5549
29.606
29.6568
29.7073
29.7575
29.8073
29.8567
29.9059
29.9546
30.003
30.051
30.0986
30.1458
30.1926
30.239
30.285
30.3306
30.3757
30.4204
30.4646
30.5084
30.5518
30.5946
30.6371
30.679
30.7204
30.7614
30.8019
30.8419
30.8813
30.9203
30.9588
30.9967
31.0341
31.071
31.1074
31.1432
31.1785
31.2133
31.2475
31.2812
31.3143
31.3468
31.3788
31.4102
31.4411
31.4714
31.5011
31.5302
31.5588
31.5868
31.6142
31.641
31.6672
31.6928
31.7179
31.7423
31.7661
31.7894
31.812
31.834
31.8554
31.8762
31.8964
31.916
31.935
31.9533
31.9711
31.9882
32.0047
32.0205
32.0358
32.0504
32.0644
32.0777
32.0904
32.1025
32.114
32.1248
32.1351
32.1446
32.1536
32.1619
32.1695
32.1766
32.1829
32.1887
32.1938
32.1983
32.2021
32.2053
32.2079
32.2098
32.2111
32.2117
41.1428
41.1331
41.1136
41.0849
41.0472
41.0012
40.9473
40.8861
40.8178
40.7431
40.6621
40.5752
40.4828
40.385
40.282
40.1741
40.0614
39.944
39.8222
39.6961
39.5659
39.4316
39.2935
39.1517
39.0063
38.8575
38.7055
38.5503
38.3922
38.2313
38.0677
37.9016
37.7331
37.5624
37.3897
37.2151
37.0386
36.8606
36.681
36.5002
36.3181
36.135
35.9509
35.7661
35.5806
35.3945
35.2081
35.0214
34.8346
34.6477
34.461
34.2744
34.0882
33.9024
33.7172
33.5326
33.3488
33.1659
32.9839
32.8031
32.6233
32.4449
32.2677
32.092
31.9179
31.7453
31.5744
31.4052
31.2379
31.0724
30.909
30.7475
30.5882
30.431
30.2759
30.1232
29.9727
29.8246
29.6789
29.5356
29.3949
29.2566
29.1209
28.9877
28.8572
28.7293
28.6041
28.4816
28.3618
28.2447
28.1304
28.0188
27.91
27.804
27.7007
27.6003
27.5026
27.4077
27.3157
27.2264
27.1399
27.0562
26.9753
26.8971
26.8217
26.7491
26.6792
26.612
26.5474
26.4856
26.4265
26.3699
26.3161
26.2648
26.2161
26.1699
26.1263
26.0852
26.0465
26.0103
25.9765
25.9451
25.9161
25.8894
25.865
25.8428
25.8229
25.8052
25.7897
25.7763
25.765
25.7558
25.7486
25.7434
25.7401
25.7388
25.7394
25.7418
25.7461
25.7521
25.7599
25.7694
25.7805
25.7934
25.8078
25.8237
25.8413
25.8603
25.8808
25.9027
25.9259
25.9506
25.9766
26.0038
26.0324
26.0621
26.093
26.1251
26.1583
26.1926
26.2279
26.2643
26.3016
26.3399
26.3791
26.4193
26.4603
26.5021
26.5448
26.5882
26.6323
26.6772
26.7228
26.769
26.8159
26.8634
26.9114
26.96
27.0092
27.0588
27.1089
27.1595
27.2105
27.2619
27.3137
27.3659
27.4183
27.4711
27.5242
27.5775
27.6311
27.685
27.739
27.7932
27.8476
27.9021
27.9567
28.0115
28.0663
28.1212
28.1762
28.2312
28.2862
28.3412
28.3962
28.4512
28.5062
28.561
28.6158
28.6705
28.7251
28.7796
28.8339
28.8881
28.9422
28.996
29.0497
29.1032
29.1564
29.2095
29.2623
29.3148
29.3671
29.4192
29.4709
29.5224
29.5735
29.6244
29.6749
29.7251
29.775
29.8245
29.8737
29.9224
29.9709
30.0189
30.0666
30.1138
30.1607
30.2071
30.2531
30.2987
30.3439
30.3886
30.4329
30.4767
30.5201
30.563
30.6055
30.6474
30.6889
30.7299
30.7704
30.8104
30.8499
30.8889
30.9274
30.9653
31.0028
31.0397
31.0761
31.112
31.1473
31.182
31.2163
31.25
31.2831
31.3156
31.3477
31.3791
31.41
31.4403
31.47
31.4992
31.5277
31.5557
31.5832
31.61
31.6362
31.6618
31.6869
31.7113
31.7352
31.7584
31.7811
31.8031
31.8245
31.8453
31.8655
31.8851
31.9041
31.9224
31.9402
31.9573
31.9738
31.9896
32.0049
32.0195
32.0335
32.0469
32.0596
32.0717
32.0832
32.094
32.1042
32.1138
32.1227
32.131
32.1387
32.1457
32.1521
32.1579
32.163
32.1675
32.1713
32.1745
32.1771
32.179
32.1803
32.1809
41.0929
41.0832
41.0638
41.0352
40.9975
40.9516
40.8976
40.8361
40.7676
40.6924
40.611
40.5237
40.4306
40.3323
40.2287
40.1201
40.0068
39.8889
39.7665
39.6398
39.5089
39.3741
39.2355
39.0931
38.9472
38.7979
38.6454
38.4897
38.3312
38.1698
38.0058
37.8393
37.6704
37.4994
37.3263
37.1513
36.9745
36.7961
36.6163
36.4351
36.2528
36.0693
35.885
35.6999
35.5142
35.328
35.1413
34.9544
34.7674
34.5804
34.3935
34.2068
34.0204
33.8345
33.6491
33.4645
33.2806
33.0976
32.9155
32.7346
32.5548
32.3763
32.1991
32.0234
31.8492
31.6766
31.5057
31.3366
31.1693
31.0039
30.8404
30.6791
30.5198
30.3626
30.2077
30.055
29.9046
29.7566
29.611
29.4679
29.3272
29.1891
29.0535
28.9205
28.7901
28.6624
28.5374
28.415
28.2954
28.1785
28.0643
27.9529
27.8443
27.7385
27.6355
27.5352
27.4378
27.3431
27.2513
27.1622
27.076
26.9925
26.9118
26.8339
26.7588
26.6864
26.6167
26.5497
26.4855
26.4239
26.365
26.3088
26.2551
26.2041
26.1557
26.1098
26.0664
26.0256
25.9872
25.9513
25.9178
25.8866
25.8579
25.8314
25.8073
25.7854
25.7658
25.7484
25.7331
25.72
25.7089
25.7
25.693
25.6881
25.6851
25.6841
25.6849
25.6876
25.6921
25.6984
25.7064
25.7162
25.7276
25.7407
25.7553
25.7716
25.7893
25.8086
25.8293
25.8514
25.875
25.8998
25.926
25.9535
25.9823
26.0122
26.0434
26.0757
26.1091
26.1436
26.1791
26.2157
26.2532
26.2917
26.3312
26.3715
26.4127
26.4547
26.4975
26.5411
26.5855
26.6305