/*--------------------------------*- C++ -*----------------------------------*\
| =========                 |                                                 |
| \\      /  F ield         | OpenFOAM: The Open Source CFD Toolbox           |
|  \\    /   O peration     | Version:  2212                                  |
|   \\  /    A nd           | Website:  www.openfoam.com                      |
|    \\/     M anipulation  |                                                 |
\*---------------------------------------------------------------------------*/
FoamFile
{
    version     2.0;
    format      ascii;
    arch        "LSB;label=32;scalar=64";
    class       volScalarField;
    location    "160";
    object      p_rgh_0;
}
// * * * * * * * * * * * * * * * * * * * * * * * * * * * * * * * * * * * * * //

dimensions      [1 -1 -2 0 0 0 0];

internalField   nonuniform List<scalar> 
204800
(
-6.07423
-6.07063
-6.06279
-6.05105
-6.03527
-6.01554
-5.99185
-5.96423
-5.93269
-5.89726
-5.85798
-5.81488
-5.768
-5.71737
-5.66304
-5.60504
-5.54339
-5.47813
-5.40928
-5.33688
-5.26094
-5.18148
-5.09854
-5.01211
-4.92221
-4.82886
-4.73205
-4.6318
-4.5281
-4.42095
-4.31036
-4.19632
-4.07883
-3.95789
-3.83349
-3.70563
-3.57432
-3.43955
-3.30134
-3.15968
-3.01458
-2.86607
-2.71414
-2.55882
-2.40013
-2.23809
-2.07273
-1.90408
-1.73216
-1.55702
-1.37869
-1.19722
-1.01264
-0.825012
-0.634375
-0.440783
-0.244293
-0.0449603
0.157154
0.36199
0.569481
0.779564
0.992169
1.20723
1.42467
1.64441
1.8664
2.09054
2.31676
2.54498
2.77513
3.00713
3.24089
3.47633
3.71337
3.95194
4.19194
4.4333
4.67593
4.91976
5.1647
5.41067
5.65759
5.90537
6.15395
6.40324
6.65316
6.90363
7.15459
7.40594
7.65763
7.90958
8.16171
8.41395
8.66624
8.91851
9.17069
9.42271
9.67452
9.92604
10.1772
10.428
10.6783
10.9281
11.1774
11.426
11.6739
11.9212
12.1676
12.4132
12.658
12.9019
13.1448
13.3867
13.6276
13.8674
14.1061
14.3436
14.58
14.8152
15.0492
15.2819
15.5133
15.7433
15.9721
16.1994
16.4254
16.65
16.8731
17.0948
17.315
17.5337
17.7509
17.9666
18.1808
18.3934
18.6044
18.8139
19.0219
19.2282
19.4329
19.636
19.8376
20.0375
20.2358
20.4324
20.6274
20.8208
21.0126
21.2027
21.3912
21.5781
21.7633
21.9469
22.1288
22.3091
22.4878
22.6648
22.8402
23.014
23.1862
23.3567
23.5256
23.6929
23.8587
24.0228
24.1853
24.3462
24.5056
24.6633
24.8195
24.9742
25.1273
25.2788
25.4288
25.5773
25.7242
25.8696
26.0135
26.1559
26.2968
26.4362
26.5742
26.7106
26.8457
26.9792
27.1113
27.242
27.3712
27.4991
27.6255
27.7505
27.8741
27.9964
28.1172
28.2367
28.3549
28.4717
28.5871
28.7012
28.8141
28.9255
29.0357
29.1446
29.2522
29.3585
29.4636
29.5674
29.6699
29.7712
29.8713
29.9701
30.0677
30.1641
30.2593
30.3533
30.4462
30.5378
30.6283
30.7176
30.8057
30.8927
30.9786
31.0634
31.147
31.2295
31.3109
31.3912
31.4703
31.5485
31.6255
31.7015
31.7764
31.8502
31.923
31.9947
32.0654
32.1351
32.2038
32.2714
32.338
32.4037
32.4683
32.5319
32.5946
32.6562
32.7169
32.7767
32.8354
32.8933
32.9501
33.0061
33.061
33.1151
33.1682
33.2204
33.2717
33.3221
33.3716
33.4201
33.4678
33.5146
33.5605
33.6055
33.6496
33.6929
33.7353
33.7768
33.8175
33.8573
33.8963
33.9344
33.9717
34.0082
34.0438
34.0786
34.1125
34.1457
34.178
34.2095
34.2402
34.27
34.2991
34.3274
34.3549
34.3815
34.4074
34.4325
34.4568
34.4803
34.5031
34.525
34.5462
34.5666
34.5862
34.605
34.6231
34.6404
34.657
34.6728
34.6878
34.702
34.7155
34.7283
34.7403
34.7515
34.762
34.7717
34.7807
34.7889
34.7963
34.8031
34.809
34.8143
34.8187
34.8225
34.8255
34.8277
34.8292
34.8299
-6.02643
-6.02284
-6.01536
-6.0042
-5.98921
-5.9705
-5.94802
-5.92181
-5.89185
-5.85817
-5.82077
-5.77966
-5.73484
-5.68633
-5.63414
-5.57827
-5.51874
-5.45556
-5.38873
-5.31826
-5.24417
-5.16647
-5.08515
-5.00023
-4.91172
-4.81962
-4.72394
-4.6247
-4.5219
-4.41554
-4.30563
-4.19219
-4.07522
-3.95473
-3.83073
-3.70322
-3.57221
-3.43772
-3.29976
-3.15834
-3.01346
-2.86516
-2.71345
-2.55834
-2.39987
-2.23804
-2.0729
-1.90448
-1.73279
-1.55789
-1.37981
-1.19859
-1.01427
-0.826907
-0.636544
-0.443233
-0.247031
-0.0479932
0.15382
0.358347
0.565525
0.775287
0.987565
1.20229
1.41939
1.6388
1.86043
2.08422
2.31008
2.53794
2.76772
2.99934
3.23272
3.46778
3.70443
3.94261
4.18221
4.42317
4.6654
4.90882
5.15335
5.39891
5.64541
5.89278
6.14093
6.38979
6.63929
6.88933
7.13985
7.39078
7.64203
7.89354
8.14523
8.39703
8.64888
8.90071
9.15244
9.40402
9.65538
9.90646
10.1572
10.4075
10.6574
10.9068
11.1556
11.4037
11.6512
11.898
12.144
12.3892
12.6335
12.8769
13.1194
13.3608
13.6013
13.8406
14.0789
14.316
14.552
14.7867
15.0202
15.2525
15.4835
15.7131
15.9414
16.1684
16.3939
16.618
16.8407
17.062
17.2818
17.5001
17.7169
17.9322
18.1459
18.3581
18.5688
18.7779
18.9854
19.1913
19.3957
19.5984
19.7995
19.9991
20.197
20.3932
20.5879
20.7809
20.9723
21.1621
21.3502
21.5367
21.7215
21.9047
22.0863
22.2663
22.4446
22.6213
22.7963
22.9698
23.1416
23.3118
23.4804
23.6474
23.8128
23.9765
24.1387
24.2993
24.4584
24.6158
24.7717
24.9261
25.0788
25.2301
25.3798
25.5279
25.6746
25.8197
25.9633
26.1054
26.2461
26.3852
26.5229
26.6591
26.7938
26.9271
27.0589
27.1893
27.3183
27.4459
27.5721
27.6968
27.8202
27.9422
28.0628
28.1821
28.3
28.4165
28.5318
28.6457
28.7582
28.8695
28.9795
29.0881
29.1955
29.3016
29.4065
29.51
29.6124
29.7135
29.8133
29.9119
30.0094
30.1056
30.2006
30.2944
30.387
30.4785
30.5688
30.6579
30.7459
30.8327
30.9184
31.003
31.0864
31.1687
31.25
31.3301
31.4091
31.4871
31.564
31.6398
31.7145
31.7882
31.8608
31.9324
32.003
32.0725
32.1411
32.2086
32.275
32.3405
32.405
32.4685
32.5311
32.5926
32.6532
32.7128
32.7714
32.8291
32.8859
32.9417
32.9966
33.0505
33.1035
33.1556
33.2068
33.2571
33.3064
33.3549
33.4025
33.4492
33.495
33.5399
33.584
33.6271
33.6694
33.7109
33.7515
33.7912
33.8301
33.8682
33.9054
33.9418
33.9773
34.012
34.0459
34.079
34.1112
34.1427
34.1733
34.2031
34.2321
34.2603
34.2877
34.3144
34.3402
34.3652
34.3895
34.4129
34.4356
34.4575
34.4787
34.499
34.5186
34.5374
34.5555
34.5727
34.5892
34.605
34.62
34.6342
34.6477
34.6604
34.6724
34.6836
34.694
34.7037
34.7127
34.7209
34.7283
34.735
34.741
34.7462
34.7507
34.7544
34.7574
34.7596
34.7611
34.7618
-6.03469
-6.03107
-6.02363
-6.01251
-5.99761
-5.979
-5.95664
-5.93055
-5.90075
-5.86723
-5.83
-5.78906
-5.74443
-5.6961
-5.64409
-5.5884
-5.52904
-5.46602
-5.39934
-5.32901
-5.25503
-5.17742
-5.09618
-5.01131
-4.92283
-4.83074
-4.73505
-4.63576
-4.5329
-4.42646
-4.31645
-4.20289
-4.08579
-3.96515
-3.84098
-3.7133
-3.58212
-3.44745
-3.3093
-3.16768
-3.02262
-2.87413
-2.72223
-2.56694
-2.40828
-2.24628
-2.08096
-1.91236
-1.74051
-1.56545
-1.3872
-1.20583
-1.02136
-0.833848
-0.643341
-0.449891
-0.253553
-0.0543828
0.147559
0.352212
0.559512
0.769393
0.981787
1.19662
1.41384
1.63335
1.85508
2.07897
2.30493
2.53288
2.76275
2.99446
3.22792
3.46306
3.6998
3.93805
4.17773
4.41875
4.66105
4.90454
5.14913
5.39474
5.64129
5.88871
6.13692
6.38583
6.63536
6.88545
7.13601
7.38697
7.63825
7.88979
8.14151
8.39334
8.64521
8.89705
9.1488
9.40039
9.65176
9.90285
10.1536
10.4039
10.6538
10.9032
11.1519
11.4001
11.6476
11.8944
12.1403
12.3855
12.6298
12.8732
13.1156
13.3571
13.5975
13.8368
14.0751
14.3122
14.5481
14.7828
15.0163
15.2485
15.4795
15.7091
15.9373
16.1642
16.3897
16.6138
16.8365
17.0577
17.2774
17.4957
17.7124
17.9277
18.1414
18.3535
18.5641
18.7732
18.9806
19.1865
19.3908
19.5935
19.7945
19.994
20.1918
20.3881
20.5826
20.7756
20.9669
21.1566
21.3447
21.5311
21.7159
21.8991
22.0806
22.2605
22.4387
22.6153
22.7903
22.9637
23.1355
23.3056
23.4742
23.6411
23.8064
23.9701
24.1323
24.2928
24.4518
24.6092
24.765
24.9193
25.072
25.2232
25.3728
25.5209
25.6675
25.8125
25.9561
26.0982
26.2387
26.3778
26.5154
26.6515
26.7862
26.9194
27.0512
27.1816
27.3105
27.438
27.5641
27.6888
27.8122
27.9341
28.0547
28.1739
28.2917
28.4082
28.5234
28.6372
28.7498
28.861
28.9709
29.0795
29.1868
29.2929
29.3977
29.5012
29.6035
29.7045
29.8043
29.9029
30.0003
30.0965
30.1914
30.2852
30.3778
30.4692
30.5594
30.6485
30.7364
30.8232
30.9089
30.9934
31.0768
31.1591
31.2403
31.3204
31.3994
31.4773
31.5541
31.6299
31.7046
31.7783
31.8509
31.9224
31.9929
32.0624
32.1309
32.1984
32.2649
32.3303
32.3948
32.4582
32.5207
32.5822
32.6428
32.7024
32.761
32.8187
32.8754
32.9312
32.986
33.0399
33.0929
33.145
33.1961
33.2464
33.2957
33.3442
33.3917
33.4384
33.4842
33.5291
33.5731
33.6162
33.6585
33.7
33.7405
33.7803
33.8191
33.8572
33.8944
33.9307
33.9662
34.0009
34.0348
34.0678
34.1001
34.1315
34.1621
34.1919
34.2209
34.2491
34.2765
34.3031
34.3289
34.354
34.3782
34.4016
34.4243
34.4462
34.4673
34.4877
34.5072
34.526
34.5441
34.5613
34.5779
34.5936
34.6086
34.6228
34.6363
34.649
34.6609
34.6721
34.6826
34.6923
34.7012
34.7094
34.7169
34.7236
34.7295
34.7347
34.7392
34.7429
34.7459
34.7481
34.7496
34.7503
-6.0109
-6.00739
-6.00024
-5.98956
-5.97526
-5.9574
-5.93594
-5.91089
-5.88225
-5.85
-5.81414
-5.77465
-5.73153
-5.68475
-5.63432
-5.58022
-5.52245
-5.46098
-5.39582
-5.32696
-5.25439
-5.1781
-5.0981
-5.01439
-4.92696
-4.83583
-4.74099
-4.64246
-4.54025
-4.43437
-4.32483
-4.21165
-4.09485
-3.97445
-3.85046
-3.7229
-3.5918
-3.45716
-3.31902
-3.1774
-3.0323
-2.88377
-2.73181
-2.57646
-2.41775
-2.25569
-2.09032
-1.92168
-1.74979
-1.57469
-1.39642
-1.21503
-1.03055
-0.843042
-0.652544
-0.459111
-0.262799
-0.0636629
0.138237
0.34284
0.550081
0.759896
0.972217
1.18697
1.4041
1.62351
1.84514
2.06892
2.29476
2.52259
2.75234
2.98391
3.21723
3.45222
3.6888
3.92689
4.1664
4.40726
4.64938
4.89268
5.13708
5.3825
5.62885
5.87607
6.12406
6.37276
6.62207
6.87193
7.12226
7.37299
7.62404
7.87533
8.1268
8.37838
8.62999
8.88158
9.13307
9.38439
9.63549
9.8863
10.1368
10.3868
10.6364
10.8855
11.134
11.3819
11.6291
11.8755
12.1212
12.3661
12.6101
12.8532
13.0953
13.3364
13.5765
13.8156
14.0535
14.2903
14.5259
14.7603
14.9935
15.2254
15.456
15.6853
15.9132
16.1398
16.365
16.5888
16.8111
17.032
17.2514
17.4693
17.6858
17.9007
18.1141
18.3259
18.5362
18.7449
18.9521
19.1576
19.3616
19.5639
19.7647
19.9639
20.1614
20.3573
20.5516
20.7442
20.9353
21.1246
21.3124
21.4985
21.683
21.8659
22.0471
22.2267
22.4046
22.581
22.7557
22.9288
23.1002
23.2701
23.4383
23.605
23.77
23.9335
24.0953
24.2556
24.4143
24.5714
24.727
24.881
25.0334
25.1843
25.3337
25.4816
25.6279
25.7727
25.916
26.0578
26.1981
26.3369
26.4743
26.6102
26.7446
26.8776
27.0092
27.1393
27.268
27.3953
27.5212
27.6456
27.7687
27.8905
28.0108
28.1298
28.2474
28.3637
28.4787
28.5923
28.7046
28.8156
28.9253
29.0338
29.1409
29.2468
29.3514
29.4547
29.5568
29.6576
29.7573
29.8557
29.9529
30.0488
30.1436
30.2372
30.3296
30.4209
30.5109
30.5999
30.6876
30.7743
30.8598
30.9441
31.0274
31.1095
31.1905
31.2705
31.3493
31.4271
31.5038
31.5794
31.654
31.7275
31.8
31.8714
31.9418
32.0111
32.0795
32.1468
32.2132
32.2785
32.3428
32.4062
32.4686
32.53
32.5904
32.6499
32.7084
32.7659
32.8225
32.8782
32.933
32.9868
33.0397
33.0916
33.1427
33.1928
33.2421
33.2904
33.3379
33.3845
33.4302
33.475
33.5189
33.562
33.6042
33.6455
33.686
33.7257
33.7645
33.8024
33.8396
33.8758
33.9113
33.9459
33.9797
34.0127
34.0449
34.0763
34.1068
34.1365
34.1655
34.1936
34.221
34.2475
34.2733
34.2983
34.3225
34.3459
34.3685
34.3904
34.4114
34.4317
34.4513
34.47
34.488
34.5053
34.5217
34.5375
34.5524
34.5666
34.58
34.5927
34.6047
34.6158
34.6263
34.6359
34.6449
34.653
34.6605
34.6672
34.6731
34.6783
34.6828
34.6865
34.6895
34.6917
34.6932
34.6939
-6.02372
-6.02021
-6.01314
-6.00255
-5.98839
-5.97069
-5.94944
-5.92462
-5.89623
-5.86427
-5.82871
-5.78955
-5.74678
-5.70037
-5.65031
-5.5966
-5.53921
-5.47814
-5.41337
-5.34489
-5.27269
-5.19676
-5.11709
-5.03368
-4.94652
-4.85562
-4.76098
-4.66261
-4.56051
-4.45469
-4.34517
-4.23197
-4.1151
-3.99458
-3.87043
-3.74268
-3.61135
-3.47646
-3.33803
-3.1961
-3.05068
-2.90181
-2.74951
-2.59381
-2.43474
-2.27233
-2.1066
-1.93761
-1.76537
-1.58993
-1.41133
-1.2296
-1.0448
-0.856975
-0.666167
-0.472431
-0.275821
-0.0763952
0.125789
0.330669
0.538182
0.748262
0.960841
1.17585
1.39322
1.61288
1.83474
2.05875
2.28482
2.51286
2.74282
2.97459
3.20812
3.4433
3.68007
3.91834
4.15803
4.39906
4.64135
4.88481
5.12936
5.37493
5.62143
5.86878
6.1169
6.36572
6.61516
6.86514
7.11558
7.36641
7.61755
7.86894
8.1205
8.37216
8.62385
8.87551
9.12706
9.37845
9.6296
9.88047
10.131
10.3811
10.6307
10.8798
11.1283
11.3762
11.6235
11.8699
12.1156
12.3605
12.6045
12.8476
13.0897
13.3308
13.5709
13.8099
14.0478
14.2846
14.5202
14.7546
14.9877
15.2195
15.4501
15.6794
15.9073
16.1338
16.3589
16.5826
16.8049
17.0257
17.2451
17.463
17.6793
17.8942
18.1075
18.3192
18.5294
18.7381
18.9451
19.1506
19.3545
19.5568
19.7575
19.9565
20.154
20.3498
20.544
20.7365
20.9275
21.1168
21.3044
21.4904
21.6748
21.8576
22.0387
22.2182
22.3961
22.5723
22.7469
22.9199
23.0913
23.261
23.4291
23.5957
23.7606
23.924
24.0857
24.2459
24.4045
24.5615
24.717
24.8709
25.0232
25.174
25.3233
25.471
25.6173
25.762
25.9052
26.0469
26.1871
26.3258
26.4631
26.5989
26.7332
26.8661
26.9976
27.1276
27.2562
27.3834
27.5092
27.6335
27.7565
27.8782
27.9984
28.1173
28.2349
28.3511
28.4659
28.5795
28.6917
28.8026
28.9122
29.0206
29.1276
29.2334
29.3379
29.4412
29.5432
29.644
29.7435
29.8418
29.9389
30.0348
30.1295
30.223
30.3154
30.4065
30.4965
30.5854
30.6731
30.7596
30.8451
30.9294
31.0125
31.0946
31.1756
31.2554
31.3342
31.4119
31.4885
31.5641
31.6386
31.712
31.7844
31.8558
31.9261
31.9955
32.0637
32.131
32.1973
32.2626
32.3269
32.3902
32.4525
32.5138
32.5742
32.6336
32.6921
32.7496
32.8061
32.8618
32.9165
32.9702
33.0231
33.075
33.126
33.1761
33.2253
33.2736
33.321
33.3676
33.4132
33.458
33.5019
33.5449
33.5871
33.6284
33.6689
33.7085
33.7472
33.7852
33.8222
33.8585
33.8939
33.9285
33.9623
33.9952
34.0274
34.0587
34.0892
34.119
34.1479
34.176
34.2033
34.2299
34.2556
34.2805
34.3047
34.3281
34.3507
34.3725
34.3936
34.4139
34.4334
34.4522
34.4701
34.4874
34.5038
34.5195
34.5344
34.5486
34.5621
34.5747
34.5866
34.5978
34.6082
34.6179
34.6268
34.635
34.6424
34.6491
34.655
34.6602
34.6647
34.6684
34.6714
34.6736
34.6751
34.6758
-6.01414
-6.01074
-6.00391
-5.99367
-5.98
-5.9629
-5.94236
-5.91836
-5.89089
-5.85993
-5.82547
-5.78747
-5.74592
-5.70078
-5.65204
-5.59966
-5.54363
-5.48391
-5.42049
-5.35333
-5.28242
-5.20774
-5.12926
-5.04698
-4.96089
-4.87097
-4.77723
-4.67967
-4.57829
-4.47309
-4.36411
-4.25134
-4.13482
-4.01456
-3.89059
-3.76294
-3.63163
-3.49671
-3.3582
-3.21613
-3.07053
-2.92145
-2.76892
-2.61296
-2.45362
-2.29093
-2.12492
-1.95564
-1.78312
-1.60741
-1.42853
-1.24655
-1.06149
-0.873417
-0.682372
-0.488409
-0.291582
-0.0919474
0.110435
0.315503
0.523195
0.733445
0.946185
1.16135
1.37886
1.59865
1.82064
2.04476
2.27093
2.49908
2.72912
2.96098
3.19458
3.42983
3.66665
3.90497
4.1447
4.38576
4.62807
4.87155
5.11611
5.36168
5.60817
5.85551
6.10362
6.35241
6.60181
6.85174
7.10213
7.3529
7.60398
7.8553
8.10678
8.35836
8.60996
8.86151
9.11296
9.36424
9.61528
9.86602
10.1164
10.3664
10.6159
10.8648
11.1132
11.3609
11.608
11.8543
12.0998
12.3445
12.5883
12.8312
13.0732
13.3141
13.554
13.7928
14.0305
14.2671
14.5024
14.7366
14.9695
15.2012
15.4315
15.6605
15.8882
16.1145
16.3394
16.5628
16.7849
17.0055
17.2246
17.4422
17.6583
17.8729
18.086
18.2975
18.5074
18.7158
18.9226
19.1279
19.3315
19.5335
19.7339
19.9327
20.1299
20.3255
20.5194
20.7117
20.9024
21.0914
21.2788
21.4646
21.6487
21.8312
22.0121
22.1913
22.3689
22.5449
22.7193
22.892
23.0631
23.2326
23.4005
23.5668
23.7315
23.8946
24.0561
24.216
24.3744
24.5311
24.6863
24.84
24.9921
25.1427
25.2917
25.4392
25.5852
25.7297
25.8726
26.0141
26.1541
26.2926
26.4296
26.5652
26.6993
26.832
26.9632
27.093
27.2214
27.3484
27.474
27.5982
27.7209
27.8424
27.9624
28.0811
28.1985
28.3145
28.4291
28.5425
28.6545
28.7652
28.8747
28.9828
29.0897
29.1953
29.2996
29.4027
29.5045
29.6051
29.7045
29.8026
29.8995
29.9953
30.0898
30.1832
30.2753
30.3663
30.4562
30.5448
30.6324
30.7188
30.804
30.8882
30.9712
31.0531
31.1339
31.2137
31.2923
31.3699
31.4464
31.5218
31.5961
31.6695
31.7417
31.813
31.8832
31.9523
32.0205
32.0877
32.1538
32.219
32.2831
32.3463
32.4085
32.4698
32.53
32.5893
32.6477
32.7051
32.7615
32.8171
32.8716
32.9253
32.9781
33.0299
33.0808
33.1308
33.1799
33.2281
33.2755
33.3219
33.3675
33.4122
33.456
33.4989
33.541
33.5823
33.6227
33.6622
33.7009
33.7387
33.7757
33.8119
33.8473
33.8818
33.9155
33.9484
33.9805
34.0118
34.0422
34.0719
34.1008
34.1288
34.1561
34.1826
34.2083
34.2332
34.2573
34.2807
34.3032
34.325
34.346
34.3663
34.3858
34.4045
34.4224
34.4396
34.456
34.4717
34.4866
34.5008
34.5142
34.5268
34.5387
34.5499
34.5602
34.5699
34.5788
34.587
34.5944
34.601
34.607
34.6122
34.6166
34.6203
34.6233
34.6255
34.627
34.6277
-6.028
-6.02463
-6.01789
-6.00778
-5.99429
-5.97741
-5.95713
-5.93343
-5.90631
-5.87574
-5.84169
-5.80415
-5.7631
-5.71849
-5.67031
-5.61853
-5.56311
-5.50403
-5.44126
-5.37477
-5.30453
-5.23052
-5.15271
-5.07108
-4.98561
-4.89629
-4.80311
-4.70605
-4.60513
-4.50034
-4.39169
-4.2792
-4.16287
-4.04273
-3.91882
-3.79114
-3.65975
-3.52467
-3.38593
-3.24358
-3.09766
-2.94821
-2.79527
-2.63887
-2.47906
-2.31589
-2.14939
-1.9796
-1.80657
-1.63034
-1.45096
-1.26847
-1.08291
-0.894342
-0.70281
-0.508368
-0.311071
-0.110976
0.091859
0.297371
0.505498
0.716174
0.929332
1.1449
1.36281
1.58299
1.80537
2.02987
2.25641
2.48491
2.7153
2.9475
3.18143
3.41701
3.65415
3.89278
4.13281
4.37416
4.61675
4.8605
5.10533
5.35116
5.5979
5.84548
6.09382
6.34283
6.59245
6.84259
7.09318
7.34415
7.59541
7.8469
8.09855
8.35029
8.60204
8.85374
9.10533
9.35673
9.60789
9.85875
10.1092
10.3593
10.6089
10.8579
11.1064
11.3542
11.6013
11.8477
12.0933
12.338
12.5818
12.8248
13.0667
13.3077
13.5476
13.7864
14.0241
14.2607
14.496
14.7302
14.963
15.1947
15.425
15.654
15.8816
16.1078
16.3327
16.5561
16.7781
16.9986
17.2177
17.4352
17.6512
17.8658
18.0787
18.2902
18.5001
18.7084
18.9151
19.1202
19.3237
19.5257
19.726
19.9247
20.1218
20.3172
20.511
20.7032
20.8938
21.0827
21.27
21.4556
21.6397
21.822
22.0028
22.1819
22.3594
22.5352
22.7094
22.882
23.053
23.2224
23.3902
23.5563
23.7209
23.8839
24.0452
24.205
24.3632
24.5199
24.675
24.8285
24.9805
25.1309
25.2798
25.4272
25.5731
25.7174
25.8602
26.0016
26.1414
26.2798
26.4167
26.5522
26.6861
26.8187
26.9498
27.0795
27.2077
27.3346
27.46
27.5841
27.7068
27.8281
27.948
28.0666
28.1838
28.2997
28.4142
28.5274
28.6394
28.75
28.8593
28.9673
29.0741
29.1795
29.2838
29.3867
29.4884
29.5889
29.6882
29.7862
29.883
29.9787
30.0731
30.1664
30.2584
30.3493
30.4391
30.5276
30.6151
30.7014
30.7865
30.8706
30.9535
31.0354
31.1161
31.1957
31.2743
31.3517
31.4281
31.5035
31.5777
31.651
31.7232
31.7943
31.8644
31.9335
32.0016
32.0687
32.1348
32.1999
32.2639
32.327
32.3892
32.4503
32.5105
32.5698
32.628
32.6854
32.7418
32.7972
32.8517
32.9053
32.958
33.0098
33.0607
33.1106
33.1597
33.2078
33.2551
33.3015
33.347
33.3916
33.4354
33.4783
33.5203
33.5615
33.6019
33.6413
33.68
33.7178
33.7548
33.7909
33.8262
33.8607
33.8944
33.9272
33.9593
33.9905
34.0209
34.0506
34.0794
34.1074
34.1347
34.1611
34.1868
34.2117
34.2357
34.2591
34.2816
34.3034
34.3244
34.3446
34.364
34.3827
34.4007
34.4178
34.4342
34.4499
34.4648
34.4789
34.4923
34.5049
34.5168
34.5279
34.5383
34.5479
34.5568
34.565
34.5724
34.5791
34.585
34.5902
34.5946
34.5983
34.6013
34.6035
34.6049
34.6057
-6.026
-6.02273
-6.01619
-6.00638
-5.99329
-5.97691
-5.95722
-5.9342
-5.90784
-5.87812
-5.845
-5.80845
-5.76845
-5.72496
-5.67795
-5.62738
-5.5732
-5.5154
-5.45392
-5.38873
-5.31979
-5.24707
-5.17053
-5.09014
-5.00588
-4.91772
-4.82564
-4.72963
-4.62967
-4.52577
-4.41792
-4.30613
-4.19041
-4.07079
-3.94728
-3.81992
-3.68873
-3.55377
-3.41506
-3.27265
-3.1266
-2.97694
-2.82372
-2.667
-2.50683
-2.34325
-2.17632
-2.00609
-1.83259
-1.65589
-1.47603
-1.29305
-1.10702
-0.917984
-0.725989
-0.531092
-0.333349
-0.132818
0.0704411
0.276368
0.484898
0.695966
0.909504
1.12544
1.34372
1.56424
1.78696
2.01178
2.23864
2.46745
2.69813
2.93062
3.16482
3.40066
3.63806
3.87693
4.11719
4.35877
4.60157
4.84553
5.09055
5.33656
5.58347
5.83121
6.0797
6.32886
6.57861
6.82887
7.07957
7.33064
7.582
7.83358
8.0853
8.3371
8.58891
8.84066
9.09228
9.34371
9.5949
9.84576
10.0963
10.3463
10.5959
10.8449
11.0933
11.3411
11.5882
11.8345
12.08
12.3247
12.5685
12.8113
13.0532
13.294
13.5338
13.7726
14.0101
14.2466
14.4818
14.7158
14.9486
15.18
15.4102
15.639
15.8665
16.0926
16.3173
16.5405
16.7623
16.9827
17.2016
17.4189
17.6348
17.8491
18.0619
18.2731
18.4828
18.6909
18.8974
19.1024
19.3057
19.5074
19.7075
19.906
20.1028
20.2981
20.4917
20.6836
20.874
21.0627
21.2497
21.4352
21.619
21.8011
21.9816
22.1605
22.3378
22.5134
22.6874
22.8598
23.0305
23.1997
23.3672
23.5331
23.6975
23.8602
24.0213
24.1809
24.3389
24.4953
24.6502
24.8035
24.9552
25.1054
25.2541
25.4013
25.5469
25.691
25.8336
25.9748
26.1144
26.2526
26.3893
26.5245
26.6583
26.7906
26.9215
27.051
27.179
27.3057
27.4309
27.5547
27.6772
27.7983
27.918
28.0364
28.1534
28.2691
28.3835
28.4965
28.6082
28.7187
28.8278
28.9356
29.0422
29.1475
29.2515
29.3543
29.4559
29.5562
29.6553
29.7531
29.8498
29.9452
30.0395
30.1326
30.2245
30.3152
30.4048
30.4932
30.5805
30.6667
30.7517
30.8356
30.9184
31
31.0806
31.1601
31.2385
31.3158
31.3921
31.4673
31.5414
31.6145
31.6866
31.7576
31.8276
31.8966
31.9645
32.0315
32.0975
32.1624
32.2264
32.2894
32.3514
32.4124
32.4725
32.5316
32.5898
32.647
32.7033
32.7587
32.8131
32.8666
32.9192
32.9708
33.0216
33.0715
33.1204
33.1685
33.2157
33.262
33.3074
33.352
33.3956
33.4385
33.4804
33.5215
33.5618
33.6012
33.6398
33.6775
33.7144
33.7505
33.7857
33.8202
33.8538
33.8866
33.9185
33.9497
33.9801
34.0096
34.0384
34.0664
34.0936
34.12
34.1456
34.1704
34.1945
34.2177
34.2402
34.262
34.2829
34.3031
34.3225
34.3412
34.3591
34.3762
34.3926
34.4082
34.423
34.4372
34.4505
34.4631
34.475
34.4861
34.4965
34.5061
34.515
34.5231
34.5305
34.5371
34.543
34.5482
34.5526
34.5563
34.5593
34.5615
34.563
34.5637
-6.03877
-6.03554
-6.02911
-6.01945
-6.00656
-5.99042
-5.97103
-5.94836
-5.92239
-5.89311
-5.86048
-5.82447
-5.78506
-5.7422
-5.69587
-5.64602
-5.59261
-5.53561
-5.47498
-5.41066
-5.34262
-5.27082
-5.19522
-5.11578
-5.03247
-4.94524
-4.85408
-4.75896
-4.65986
-4.55677
-4.44967
-4.33857
-4.22346
-4.10437
-3.9813
-3.85429
-3.72336
-3.58855
-3.44989
-3.30745
-3.16126
-3.01138
-2.85787
-2.70078
-2.54017
-2.3761
-2.20863
-2.03782
-1.86372
-1.68639
-1.50588
-1.32226
-1.13557
-0.945868
-0.753216
-0.557667
-0.359279
-0.158111
0.0457767
0.252322
0.46146
0.673125
0.88725
1.10377
1.3226
1.54369
1.76694
1.9923
2.21968
2.449
2.68018
2.91316
3.14784
3.38415
3.622
3.86132
4.10201
4.34401
4.58723
4.83159
5.077
5.32339
5.57067
5.81877
6.06761
6.3171
6.56718
6.81776
7.06876
7.32012
7.57176
7.82361
8.07559
8.32764
8.57969
8.83167
9.08351
9.33515
9.58653
9.83759
10.0883
10.3385
10.5882
10.8374
11.0859
11.3338
11.581
11.8275
12.0731
12.3178
12.5617
12.8046
13.0466
13.2875
13.5273
13.7661
14.0037
14.2402
14.4754
14.7095
14.9422
15.1737
15.4038
15.6327
15.8601
16.0862
16.3108
16.534
16.7558
16.9761
17.1949
17.4122
17.628
17.8423
18.055
18.2662
18.4758
18.6838
18.8902
19.095
19.2982
19.4999
19.6999
19.8982
20.095
20.2901
20.4836
20.6754
20.8656
21.0542
21.2412
21.4265
21.6101
21.7921
21.9725
22.1513
22.3284
22.5039
22.6777
22.8499
23.0206
23.1896
23.3569
23.5227
23.6869
23.8495
24.0105
24.1699
24.3277
24.484
24.6387
24.7919
24.9435
25.0935
25.2421
25.3891
25.5345
25.6785
25.821
25.962
26.1014
26.2394
26.376
26.5111
26.6447
26.7769
26.9076
27.0369
27.1648
27.2913
27.4164
27.5401
27.6625
27.7834
27.903
28.0212
28.1381
28.2537
28.3679
28.4808
28.5924
28.7026
28.8116
28.9193
29.0258
29.1309
29.2348
29.3375
29.4389
29.5391
29.638
29.7358
29.8323
29.9276
30.0218
30.1147
30.2065
30.2971
30.3866
30.4749
30.5621
30.6481
30.733
30.8168
30.8994
30.981
31.0615
31.1409
31.2191
31.2964
31.3725
31.4476
31.5217
31.5947
31.6666
31.7375
31.8074
31.8763
31.9442
32.011
32.0769
32.1418
32.2056
32.2685
32.3305
32.3914
32.4514
32.5105
32.5685
32.6257
32.6819
32.7372
32.7915
32.8449
32.8974
32.949
32.9997
33.0495
33.0984
33.1464
33.1935
33.2397
33.2851
33.3296
33.3732
33.416
33.4579
33.4989
33.5391
33.5785
33.617
33.6547
33.6915
33.7275
33.7627
33.7971
33.8307
33.8634
33.8953
33.9265
33.9568
33.9863
34.015
34.043
34.0701
34.0965
34.1221
34.1469
34.1709
34.1941
34.2166
34.2383
34.2592
34.2793
34.2987
34.3173
34.3352
34.3523
34.3687
34.3843
34.3991
34.4132
34.4265
34.4391
34.451
34.4621
34.4724
34.482
34.4909
34.499
34.5064
34.513
34.5189
34.5241
34.5285
34.5322
34.5351
34.5373
34.5388
34.5395
-6.04025
-6.0371
-6.03084
-6.02143
-6.00888
-5.99316
-5.97427
-5.95218
-5.92687
-5.89831
-5.86648
-5.83134
-5.79286
-5.751
-5.70572
-5.65697
-5.60472
-5.54892
-5.48952
-5.42647
-5.35973
-5.28924
-5.21497
-5.13686
-5.05488
-4.96898
-4.87912
-4.78527
-4.6874
-4.5855
-4.47953
-4.36948
-4.25536
-4.13716
-4.0149
-3.88858
-3.75824
-3.62391
-3.48562
-3.34342
-3.19737
-3.04751
-2.89392
-2.73665
-2.57578
-2.41136
-2.24347
-2.07218
-1.89755
-1.71964
-1.53854
-1.35429
-1.16696
-0.976606
-0.783299
-0.587095
-0.388056
-0.186243
0.018281
0.225452
0.435206
0.647476
0.862194
1.07929
1.29869
1.52033
1.74413
1.97001
2.19791
2.42773
2.65941
2.89287
3.12801
3.36477
3.60307
3.84281
4.08393
4.32633
4.56994
4.81467
5.06045
5.30719
5.55482
5.80324
6.0524
6.30219
6.55256
6.80342
7.05469
7.3063
7.55818
7.81026
8.06246
8.31472
8.56696
8.81912
9.07113
9.32293
9.57445
9.82564
10.0764
10.3268
10.5766
10.8259
11.0745
11.3225
11.5697
11.8162
12.0619
12.3067
12.5506
12.7935
13.0354
13.2763
13.5162
13.7549
13.9925
14.2289
14.4641
14.6981
14.9308
15.1622
15.3923
15.621
15.8484
16.0743
16.2989
16.522
16.7436
16.9638
17.1825
17.3997
17.6153
17.8295
18.042
18.253
18.4625
18.6703
18.8766
19.0812
19.2843
19.4857
19.6856
19.8838
20.0803
20.2752
20.4685
20.6602
20.8502
21.0386
21.2253
21.4104
21.5939
21.7757
21.9559
22.1344
22.3113
22.4866
22.6602
22.8323
23.0027
23.1714
23.3386
23.5042
23.6681
23.8305
23.9913
24.1505
24.3081
24.4642
24.6187
24.7716
24.923
25.0728
25.2211
25.3679
25.5132
25.6569
25.7992
25.94
26.0792
26.217
26.3534
26.4882
26.6216
26.7536
26.8842
27.0133
27.141
27.2673
27.3921
27.5156
27.6378
27.7585
27.8779
27.9959
28.1126
28.228
28.342
28.4547
28.5661
28.6762
28.785
28.8925
28.9988
29.1037
29.2075
29.3099
29.4112
29.5112
29.61
29.7075
29.8039
29.899
29.993
30.0858
30.1774
30.2679
30.3572
30.4453
30.5323
30.6182
30.7029
30.7866
30.8691
30.9505
31.0308
31.1101
31.1882
31.2653
31.3413
31.4162
31.4901
31.563
31.6348
31.7056
31.7754
31.8441
31.9119
31.9786
32.0443
32.1091
32.1728
32.2356
32.2974
32.3583
32.4181
32.4771
32.535
32.5921
32.6482
32.7033
32.7576
32.8109
32.8633
32.9148
32.9654
33.0151
33.0639
33.1118
33.1588
33.205
33.2502
33.2946
33.3382
33.3808
33.4227
33.4636
33.5037
33.543
33.5815
33.6191
33.6558
33.6918
33.7269
33.7612
33.7947
33.8274
33.8593
33.8903
33.9206
33.9501
33.9787
34.0066
34.0337
34.06
34.0855
34.1103
34.1342
34.1574
34.1799
34.2015
34.2224
34.2425
34.2618
34.2804
34.2983
34.3153
34.3317
34.3472
34.362
34.3761
34.3894
34.402
34.4138
34.4249
34.4352
34.4448
34.4536
34.4617
34.4691
34.4757
34.4816
34.4868
34.4912
34.4948
34.4978
34.5
34.5015
34.5022
-6.05083
-6.04774
-6.04158
-6.03232
-6.01997
-6.00451
-5.98592
-5.96419
-5.93929
-5.91119
-5.87988
-5.8453
-5.80744
-5.76624
-5.72168
-5.67371
-5.62228
-5.56735
-5.50887
-5.44679
-5.38106
-5.31163
-5.23844
-5.16145
-5.08061
-4.99586
-4.90718
-4.8145
-4.71781
-4.61705
-4.5122
-4.40325
-4.29016
-4.17294
-4.05157
-3.92608
-3.79646
-3.66275
-3.52497
-3.38317
-3.23739
-3.08769
-2.93414
-2.77679
-2.61572
-2.45101
-2.28272
-2.11095
-1.93577
-1.75725
-1.57547
-1.3905
-1.20243
-1.01131
-0.817213
-0.620212
-0.420371
-0.217757
-0.0124356
0.195527
0.406063
0.619105
0.834584
1.05243
1.27257
1.49493
1.71944
1.94603
2.17461
2.4051
2.63744
2.87154
3.10732
3.3447
3.5836
3.82394
4.06563
4.3086
4.55276
4.79803
5.04434
5.29159
5.53971
5.78862
6.03824
6.2885
6.53931
6.79059
7.04228
7.2943
7.54657
7.79902
8.05159
8.30419
8.55677
8.80925
9.06157
9.31367
9.56548
9.81694
10.068
10.3186
10.5686
10.8181
11.067
11.3151
11.5626
11.8092
12.0551
12.3
12.544
12.7871
13.0291
13.2702
13.5101
13.7489
13.9866
14.2231
14.4583
14.6924
14.9251
15.1565
15.3866
15.6154
15.8428
16.0687
16.2933
16.5164
16.738
16.9581
17.1768
17.3939
17.6095
17.8236
18.0361
18.247
18.4564
18.6642
18.8703
19.0749
19.2779
19.4792
19.6789
19.877
20.0735
20.2683
20.4615
20.653
20.8429
21.0312
21.2178
21.4027
21.586
21.7677
21.9477
22.1261
22.3029
22.478
22.6515
22.8234
22.9936
23.1622
23.3293
23.4947
23.6585
23.8207
23.9813
24.1403
24.2978
24.4537
24.608
24.7608
24.912
25.0617
25.2098
25.3564
25.5015
25.6451
25.7872
25.9278
26.0669
26.2045
26.3407
26.4754
26.6086
26.7404
26.8708
26.9997
27.1273
27.2534
27.3781
27.5015
27.6234
27.744
27.8632
27.9811
28.0976
28.2128
28.3267
28.4392
28.5505
28.6604
28.769
28.8764
28.9825
29.0873
29.1909
29.2932
29.3943
29.4942
29.5928
29.6902
29.7864
29.8814
29.9753
30.0679
30.1594
30.2497
30.3389
30.4269
30.5138
30.5995
30.6841
30.7676
30.85
30.9313
31.0115
31.0906
31.1686
31.2456
31.3215
31.3963
31.4701
31.5428
31.6145
31.6852
31.7549
31.8235
31.8911
31.9577
32.0234
32.088
32.1517
32.2143
32.276
32.3368
32.3966
32.4554
32.5133
32.5702
32.6262
32.6813
32.7354
32.7887
32.841
32.8924
32.9429
32.9925
33.0412
33.0891
33.136
33.1821
33.2273
33.2716
33.3151
33.3577
33.3994
33.4403
33.4804
33.5196
33.5579
33.5955
33.6322
33.6681
33.7032
33.7374
33.7708
33.8035
33.8353
33.8663
33.8965
33.9259
33.9545
33.9824
34.0094
34.0357
34.0612
34.0859
34.1098
34.1329
34.1553
34.1769
34.1978
34.2179
34.2372
34.2557
34.2735
34.2906
34.3069
34.3224
34.3372
34.3512
34.3645
34.3771
34.3888
34.3999
34.4102
34.4198
34.4286
34.4367
34.4441
34.4507
34.4566
34.4617
34.4661
34.4698
34.4727
34.4749
34.4764
34.4771
-6.05326
-6.05023
-6.04422
-6.03518
-6.02312
-6.00801
-5.98986
-5.96862
-5.94429
-5.91682
-5.8862
-5.85239
-5.81535
-5.77504
-5.73142
-5.68444
-5.63406
-5.58023
-5.5229
-5.46202
-5.39753
-5.32937
-5.25749
-5.18185
-5.10237
-5.01902
-4.93173
-4.84047
-4.74518
-4.64582
-4.54235
-4.43474
-4.32297
-4.20701
-4.08684
-3.96247
-3.83389
-3.70112
-3.56417
-3.42309
-3.27791
-3.12868
-2.97545
-2.8183
-2.6573
-2.49253
-2.32407
-2.152
-1.97642
-1.79741
-1.61507
-1.42947
-1.2407
-1.04885
-0.853987
-0.656195
-0.455548
-0.252118
-0.0459783
0.162801
0.374148
0.587992
0.804264
1.02289