/*--------------------------------*- C++ -*----------------------------------*\
| =========                 |                                                 |
| \\      /  F ield         | OpenFOAM: The Open Source CFD Toolbox           |
|  \\    /   O peration     | Version:  2212                                  |
|   \\  /    A nd           | Website:  www.openfoam.com                      |
|    \\/     M anipulation  |                                                 |
\*---------------------------------------------------------------------------*/
FoamFile
{
    version     2.0;
    format      ascii;
    arch        "LSB;label=32;scalar=64";
    class       volScalarField;
    location    "160";
    object      p_rgh;
}
// * * * * * * * * * * * * * * * * * * * * * * * * * * * * * * * * * * * * * //

dimensions      [1 -1 -2 0 0 0 0];

internalField   nonuniform List<scalar> 
204800
(
-6.05664
-6.05306
-6.04523
-6.03352
-6.01776
-5.99808
-5.97443
-5.94686
-5.91538
-5.88002
-5.84082
-5.7978
-5.75102
-5.70049
-5.64627
-5.58838
-5.52685
-5.46172
-5.393
-5.32074
-5.24495
-5.16565
-5.08286
-4.9966
-4.90687
-4.8137
-4.71707
-4.61701
-4.5135
-4.40656
-4.29617
-4.18234
-4.06506
-3.94433
-3.82015
-3.69252
-3.56143
-3.42689
-3.28891
-3.14748
-3.00263
-2.85435
-2.70266
-2.54759
-2.38914
-2.22735
-2.06224
-1.89383
-1.72217
-1.54728
-1.3692
-1.18798
-1.00366
-0.816276
-0.625891
-0.432553
-0.236315
-0.0372345
0.164629
0.369213
0.576454
0.786288
0.998644
1.21346
1.43065
1.65015
1.87189
2.09579
2.32177
2.54976
2.77968
3.01144
3.24497
3.48018
3.717
3.95534
4.19512
4.43626
4.67868
4.92229
5.16702
5.41278
5.65949
5.90708
6.15546
6.40455
6.65428
6.90456
7.15533
7.40651
7.65802
7.90979
8.16175
8.41382
8.66595
8.91805
9.17007
9.42194
9.6736
9.92497
10.176
10.4267
10.6768
10.9265
11.1756
11.4241
11.6719
11.919
12.1654
12.4109
12.6555
12.8993
13.1421
13.3839
13.6247
13.8644
14.103
14.3405
14.5768
14.8119
15.0458
15.2784
15.5098
15.7398
15.9684
16.1958
16.4217
16.6462
16.8693
17.0909
17.311
17.5297
17.7469
17.9625
18.1767
18.3893
18.6003
18.8098
19.0176
19.224
19.4287
19.6318
19.8333
20.0332
20.2314
20.4281
20.6231
20.8165
21.0083
21.1984
21.3869
21.5738
21.759
21.9425
22.1245
22.3048
22.4835
22.6605
22.836
23.0098
23.1819
23.3525
23.5214
23.6888
23.8545
24.0186
24.1812
24.3421
24.5015
24.6593
24.8156
24.9702
25.1233
25.2749
25.4249
25.5734
25.7204
25.8658
26.0098
26.1522
26.2932
26.4326
26.5706
26.7071
26.8421
26.9757
27.1079
27.2386
27.3679
27.4957
27.6222
27.7472
27.8709
27.9932
28.1141
28.2336
28.3518
28.4686
28.5841
28.6983
28.8111
28.9227
29.0329
29.1418
29.2494
29.3558
29.4609
29.5647
29.6673
29.7686
29.8687
29.9676
30.0652
30.1616
30.2569
30.3509
30.4438
30.5354
30.6259
30.7153
30.8034
30.8905
30.9764
31.0611
31.1448
31.2273
31.3087
31.389
31.4683
31.5464
31.6234
31.6994
31.7743
31.8482
31.921
31.9928
32.0635
32.1332
32.2019
32.2695
32.3362
32.4018
32.4664
32.5301
32.5928
32.6544
32.7152
32.7749
32.8337
32.8915
32.9484
33.0043
33.0593
33.1134
33.1665
33.2187
33.27
33.3204
33.3699
33.4185
33.4662
33.513
33.5589
33.6039
33.648
33.6913
33.7337
33.7753
33.816
33.8558
33.8948
33.9329
33.9702
34.0067
34.0423
34.0771
34.111
34.1442
34.1765
34.208
34.2387
34.2686
34.2977
34.326
34.3534
34.3801
34.406
34.4311
34.4554
34.4789
34.5017
34.5236
34.5448
34.5652
34.5848
34.6037
34.6218
34.6391
34.6556
34.6714
34.6865
34.7007
34.7142
34.727
34.739
34.7502
34.7607
34.7704
34.7794
34.7876
34.7951
34.8018
34.8078
34.813
34.8175
34.8212
34.8242
34.8264
34.8279
34.8286
-6.00887
-6.0053
-5.99783
-5.98669
-5.97174
-5.95306
-5.93063
-5.90447
-5.87458
-5.84097
-5.80364
-5.76261
-5.71789
-5.66948
-5.61739
-5.56164
-5.50223
-5.43918
-5.37248
-5.30216
-5.22822
-5.15066
-5.06951
-4.98475
-4.89641
-4.80449
-4.709
-4.60995
-4.50733
-4.40117
-4.29147
-4.17824
-4.06148
-3.9412
-3.81742
-3.69013
-3.55935
-3.42509
-3.28736
-3.14617
-3.00153
-2.85347
-2.702
-2.54713
-2.3889
-2.22732
-2.06243
-1.89425
-1.72282
-1.54817
-1.37034
-1.18937
-1.0053
-0.81819
-0.628078
-0.43502
-0.23907
-0.0402839
0.161278
0.365555
0.572483
0.781996
0.994027
1.20851
1.42536
1.64452
1.86591
2.08946
2.31508
2.54271
2.77225
3.00364
3.23679
3.47162
3.70805
3.946
4.18538
4.42613
4.66814
4.91135
5.15567
5.40101
5.64731
5.89448
6.14243
6.3911
6.6404
6.89026
7.1406
7.39134
7.64241
7.89375
8.14527
8.3969
8.64859
8.90025
9.15182
9.40325
9.65446
9.90539
10.156
10.4062
10.6559
10.9051
11.1538
11.4018
11.6492
11.8959
12.1418
12.3868
12.631
12.8743
13.1167
13.3581
13.5984
13.8377
14.0759
14.3129
14.5488
14.7835
15.0169
15.2491
15.48
15.7096
15.9378
16.1647
16.3902
16.6142
16.8369
17.0581
17.2778
17.4961
17.7129
17.9281
18.1418
18.354
18.5646
18.7737
18.9812
19.1871
19.3914
19.5941
19.7953
19.9948
20.1927
20.3889
20.5836
20.7766
20.968
21.1577
21.3459
21.5323
21.7172
21.9004
22.082
22.262
22.4403
22.617
22.7921
22.9655
23.1374
23.3076
23.4762
23.6432
23.8086
23.9724
24.1346
24.2953
24.4543
24.6118
24.7678
24.9221
25.0749
25.2262
25.3759
25.5241
25.6708
25.8159
25.9596
26.1017
26.2424
26.3816
26.5193
26.6555
26.7903
26.9236
27.0555
27.1859
27.315
27.4426
27.5688
27.6936
27.817
27.939
28.0597
28.179
28.2969
28.4135
28.5288
28.6427
28.7553
28.8666
28.9766
29.0853
29.1927
29.2989
29.4037
29.5074
29.6097
29.7108
29.8107
29.9094
30.0068
30.1031
30.1981
30.292
30.3846
30.4761
30.5664
30.6556
30.7436
30.8304
30.9162
31.0008
31.0842
31.1666
31.2478
31.328
31.407
31.485
31.5619
31.6377
31.7125
31.7862
31.8589
31.9305
32.0011
32.0706
32.1391
32.2067
32.2732
32.3387
32.4032
32.4667
32.5292
32.5908
32.6514
32.711
32.7697
32.8274
32.8842
32.94
32.9949
33.0488
33.1018
33.1539
33.2051
33.2554
33.3048
33.3533
33.4009
33.4476
33.4934
33.5383
33.5824
33.6256
33.6679
33.7093
33.7499
33.7897
33.8286
33.8666
33.9039
33.9402
33.9758
34.0105
34.0444
34.0775
34.1097
34.1412
34.1718
34.2016
34.2307
34.2589
34.2863
34.3129
34.3388
34.3638
34.3881
34.4115
34.4342
34.4562
34.4773
34.4976
34.5172
34.5361
34.5541
34.5714
34.5879
34.6037
34.6186
34.6329
34.6464
34.6591
34.671
34.6822
34.6927
34.7024
34.7114
34.7196
34.727
34.7337
34.7397
34.7449
34.7494
34.7531
34.7561
34.7583
34.7598
34.7606
-6.01714
-6.01353
-6.00611
-5.99501
-5.98014
-5.96157
-5.93925
-5.91323
-5.88348
-5.85003
-5.81288
-5.77203
-5.72749
-5.67926
-5.62735
-5.57178
-5.51254
-5.44964
-5.3831
-5.31291
-5.23908
-5.16162
-5.08054
-4.99584
-4.90753
-4.81561
-4.7201
-4.62101
-4.51834
-4.41209
-4.30229
-4.18894
-4.07204
-3.95162
-3.82767
-3.70021
-3.56926
-3.43481
-3.29689
-3.15551
-3.01069
-2.86244
-2.71078
-2.55573
-2.39731
-2.23555
-2.07049
-1.90214
-1.73053
-1.55572
-1.37773
-1.19661
-1.01239
-0.82513
-0.634875
-0.441678
-0.245591
-0.0466727
0.155018
0.359421
0.566471
0.776103
0.98825
1.20284
1.41981
1.63907
1.86057
2.08421
2.30993
2.53765
2.76728
2.99876
3.23199
3.4669
3.70341
3.94144
4.1809
4.42171
4.66379
4.90706
5.15144
5.39685
5.6432
5.89042
6.13842
6.38714
6.63648
6.88638
7.13675
7.38753
7.63864
7.89
8.14154
8.3932
8.64491
8.89659
9.14818
9.39962
9.65084
9.90178
10.1524
10.4026
10.6523
10.9015
11.1502
11.3982
11.6456
11.8922
12.1381
12.3832
12.6274
12.8706
13.113
13.3543
13.5946
13.8339
14.0721
14.3091
14.5449
14.7795
15.013
15.2451
15.476
15.7055
15.9337
16.1605
16.386
16.61
16.8326
17.0538
17.2735
17.4917
17.7084
17.9236
18.1373
18.3494
18.56
18.769
18.9764
19.1823
19.3865
19.5892
19.7903
19.9897
20.1875
20.3837
20.5783
20.7713
20.9626
21.1523
21.3404
21.5268
21.7116
21.8948
22.0763
22.2562
22.4344
22.6111
22.7861
22.9595
23.1313
23.3014
23.47
23.6369
23.8023
23.966
24.1282
24.2887
24.4477
24.6052
24.761
24.9153
25.0681
25.2193
25.3689
25.5171
25.6637
25.8088
25.9524
26.0945
26.2351
26.3742
26.5118
26.648
26.7827
26.916
27.0478
27.1782
27.3071
27.4347
27.5608
27.6856
27.8089
27.9309
28.0515
28.1708
28.2887
28.4052
28.5204
28.6343
28.7468
28.8581
28.968
29.0767
29.184
29.2901
29.395
29.4985
29.6008
29.7019
29.8018
29.9004
29.9978
30.094
30.189
30.2828
30.3754
30.4668
30.5571
30.6462
30.7342
30.821
30.9066
30.9912
31.0746
31.1569
31.2381
31.3183
31.3973
31.4752
31.5521
31.6279
31.7026
31.7763
31.8489
31.9205
31.991
32.0605
32.129
32.1965
32.263
32.3284
32.3929
32.4564
32.5189
32.5804
32.641
32.7006
32.7592
32.8169
32.8736
32.9294
32.9843
33.0382
33.0912
33.1433
33.1945
33.2447
33.2941
33.3425
33.3901
33.4368
33.4826
33.5275
33.5715
33.6147
33.657
33.6984
33.739
33.7787
33.8176
33.8556
33.8928
33.9292
33.9647
33.9994
34.0333
34.0664
34.0986
34.13
34.1606
34.1905
34.2195
34.2477
34.2751
34.3017
34.3275
34.3525
34.3768
34.4002
34.4229
34.4448
34.4659
34.4863
34.5059
34.5247
34.5427
34.56
34.5765
34.5922
34.6072
34.6215
34.6349
34.6476
34.6596
34.6708
34.6813
34.691
34.6999
34.7081
34.7156
34.7223
34.7282
34.7334
34.7379
34.7416
34.7446
34.7468
34.7483
34.7491
-5.99339
-5.98988
-5.98275
-5.97209
-5.95783
-5.94
-5.91859
-5.8936
-5.86502
-5.83284
-5.79706
-5.75765
-5.71462
-5.66795
-5.61763
-5.56364
-5.50598
-5.44464
-5.37962
-5.31089
-5.23847
-5.16234
-5.0825
-4.99895
-4.91169
-4.82074
-4.72608
-4.62774
-4.52571
-4.42003
-4.31069
-4.19772
-4.08113
-3.96095
-3.83717
-3.70984
-3.57896
-3.44455
-3.30664
-3.16525
-3.02039
-2.87209
-2.72038
-2.56527
-2.4068
-2.24499
-2.07987
-1.91147
-1.73983
-1.56498
-1.38696
-1.20582
-1.0216
-0.83434
-0.644094
-0.450913
-0.254853
-0.055968
0.145681
0.350034
0.557026
0.766593
0.978666
1.19318
1.41005
1.62923
1.85062
2.07415
2.29976
2.52735
2.75686
2.9882
3.22129
3.45605
3.69241
3.93027
4.16957
4.41021
4.65211
4.8952
5.13939
5.3846
5.63075
5.87776
6.12556
6.37406
6.62318
6.87286
7.123
7.37355
7.62442
7.87554
8.12684
8.37824
8.62969
8.88112
9.13245
9.38362
9.63457
9.88524
10.1356
10.3855
10.6349
10.8839
11.1322
11.38
11.6271
11.8734
12.119
12.3637
12.6076
12.8506
13.0926
13.3337
13.5737
13.8126
14.0505
14.2872
14.5227
14.757
14.9901
15.222
15.4525
15.6817
15.9096
16.1361
16.3613
16.585
16.8073
17.0281
17.2475
17.4654
17.6818
17.8966
18.11
18.3218
18.532
18.7407
18.9479
19.1534
19.3573
19.5597
19.7604
19.9596
20.1571
20.353
20.5473
20.7399
20.9309
21.1203
21.3081
21.4942
21.6787
21.8616
22.0428
22.2224
22.4004
22.5767
22.7514
22.9245
23.096
23.2659
23.4342
23.6008
23.7659
23.9294
24.0912
24.2515
24.4103
24.5674
24.723
24.877
25.0295
25.1805
25.3299
25.4777
25.6241
25.7689
25.9123
26.0541
26.1945
26.3333
26.4707
26.6066
26.7411
26.8741
27.0057
27.1359
27.2646
27.392
27.5179
27.6424
27.7655
27.8873
28.0077
28.1267
28.2444
28.3607
28.4757
28.5894
28.7017
28.8127
28.9225
29.0309
29.1381
29.244
29.3486
29.452
29.5541
29.655
29.7547
29.8531
29.9503
30.0464
30.1412
30.2348
30.3272
30.4185
30.5086
30.5976
30.6853
30.772
30.8575
30.9419
31.0252
31.1073
31.1884
31.2684
31.3472
31.425
31.5017
31.5774
31.652
31.7255
31.798
31.8694
31.9398
32.0092
32.0776
32.1449
32.2113
32.2766
32.341
32.4044
32.4667
32.5282
32.5886
32.6481
32.7066
32.7642
32.8208
32.8765
32.9312
32.9851
33.038
33.0899
33.141
33.1912
33.2404
33.2888
33.3363
33.3828
33.4285
33.4734
33.5173
33.5604
33.6026
33.644
33.6845
33.7241
33.7629
33.8009
33.838
33.8743
33.9098
33.9444
33.9782
34.0112
34.0434
34.0748
34.1053
34.1351
34.164
34.1922
34.2195
34.2461
34.2719
34.2969
34.3211
34.3445
34.3671
34.389
34.41
34.4304
34.4499
34.4687
34.4867
34.5039
34.5204
34.5361
34.5511
34.5653
34.5787
34.5914
34.6033
34.6145
34.6249
34.6346
34.6436
34.6517
34.6592
34.6659
34.6718
34.677
34.6815
34.6852
34.6882
34.6904
34.6919
34.6926
-6.00623
-6.00273
-5.99568
-5.98511
-5.97098
-5.95332
-5.93211
-5.90735
-5.87903
-5.84713
-5.81165
-5.77258
-5.72989
-5.68358
-5.63363
-5.58003
-5.52277
-5.46182
-5.39718
-5.32884
-5.25679
-5.18101
-5.1015
-5.01825
-4.93126
-4.84054
-4.74608
-4.64789
-4.54598
-4.44036
-4.33104
-4.21804
-4.10138
-3.98108
-3.85715
-3.72962
-3.59851
-3.46384
-3.32565
-3.18395
-3.03877
-2.89014
-2.73808
-2.58262
-2.42379
-2.26162
-2.09615
-1.9274
-1.75541
-1.58022
-1.40187
-1.2204
-1.03585
-0.848273
-0.657717
-0.464233
-0.267875
-0.0687
0.133233
0.337863
0.545127
0.754958
0.96729
1.18205
1.39918
1.61859
1.84022
2.06398
2.28981
2.51762
2.74734
2.97889
3.21218
3.44714
3.68368
3.92173
4.1612
4.40201
4.64408
4.88733
5.13167
5.37703
5.62333
5.87048
6.1184
6.36703
6.61627
6.86606
7.11632
7.36697
7.61793
7.86915
8.12053
8.37203
8.62355
8.87505
9.12644
9.37768
9.62868
9.8794
10.1298
10.3797
10.6292
10.8782
11.1266
11.3744
11.6215
11.8678
12.1134
12.3582
12.6021
12.845
13.0871
13.3281
13.5681
13.807
14.0448
14.2815
14.517
14.7513
14.9843
15.2161
15.4466
15.6758
15.9036
16.1301
16.3552
16.5788
16.8011
17.0219
17.2412
17.459
17.6753
17.8901
18.1034
18.3151
18.5253
18.7339
18.941
19.1464
19.3503
19.5525
19.7532
19.9522
20.1497
20.3455
20.5397
20.7322
20.9231
21.1124
21.3001
21.4861
21.6705
21.8533
22.0344
22.2139
22.3918
22.568
22.7427
22.9157
23.087
23.2568
23.425
23.5915
23.7565
23.9199
24.0816
24.2418
24.4005
24.5575
24.713
24.8669
25.0193
25.1701
25.3194
25.4672
25.6135
25.7582
25.9014
26.0432
26.1834
26.3222
26.4595
26.5953
26.7297
26.8626
26.9941
27.1242
27.2528
27.38
27.5059
27.6303
27.7533
27.875
27.9953
28.1142
28.2318
28.348
28.4629
28.5765
28.6888
28.7997
28.9094
29.0178
29.1248
29.2307
29.3352
29.4385
29.5405
29.6413
29.7409
29.8393
29.9364
30.0323
30.1271
30.2206
30.313
30.4042
30.4942
30.5831
30.6708
30.7574
30.8428
30.9271
31.0103
31.0924
31.1734
31.2533
31.3321
31.4098
31.4865
31.562
31.6366
31.71
31.7825
31.8538
31.9242
31.9935
32.0618
32.1291
32.1954
32.2607
32.325
32.3883
32.4506
32.512
32.5724
32.6318
32.6903
32.7478
32.8044
32.86
32.9147
32.9685
33.0213
33.0733
33.1243
33.1744
33.2236
33.272
33.3194
33.3659
33.4116
33.4564
33.5003
33.5433
33.5855
33.6268
33.6673
33.7069
33.7457
33.7836
33.8207
33.857
33.8924
33.927
33.9608
33.9937
34.0259
34.0572
34.0878
34.1175
34.1464
34.1745
34.2019
34.2284
34.2541
34.2791
34.3033
34.3267
34.3493
34.3711
34.3922
34.4125
34.432
34.4508
34.4688
34.486
34.5024
34.5181
34.5331
34.5473
34.5607
34.5734
34.5853
34.5965
34.6069
34.6166
34.6255
34.6337
34.6411
34.6478
34.6537
34.6589
34.6634
34.6671
34.6701
34.6723
34.6738
34.6745
-5.9967
-5.99331
-5.98649
-5.97628
-5.96264
-5.94558
-5.92508
-5.90113
-5.87373
-5.84284
-5.80845
-5.77054
-5.72908
-5.68404
-5.6354
-5.58314
-5.52722
-5.46763
-5.40434
-5.33732
-5.26656
-5.19202
-5.11371
-5.03159
-4.94566
-4.85592
-4.76236
-4.66498
-4.56379
-4.45879
-4.35
-4.23744
-4.12113
-4.00108
-3.87733
-3.74989
-3.61881
-3.48412
-3.34583
-3.204
-3.05864
-2.9098
-2.7575
-2.60179
-2.44269
-2.28024
-2.11448
-1.94545
-1.77318
-1.59771
-1.41909
-1.23736
-1.05255
-0.864729
-0.673936
-0.480224
-0.283648
-0.0842653
0.117866
0.322685
0.530128
0.740129
0.952622
1.16754
1.3848
1.60435
1.8261
2.04998
2.27592
2.50383
2.73364
2.96526
3.19863
3.43365
3.67025
3.90835
4.14786
4.3887
4.6308
4.87406
5.11841
5.36378
5.61007
5.8572
6.10511
6.35371
6.60292
6.85266
7.10287
7.35346
7.60436
7.8555
8.10681
8.35822
8.60966
8.86105
9.11235
9.36347
9.61436
9.86495
10.1152
10.365
10.6144
10.8632
11.1115
11.3591
11.606
11.8522
12.0976
12.3422
12.5859
12.8287
13.0705
13.3114
13.5512
13.7899
14.0275
14.264
14.4993
14.7333
14.9662
15.1977
15.428
15.657
15.8846
16.1108
16.3356
16.5591
16.7811
17.0016
17.2207
17.4382
17.6543
17.8689
18.0819
18.2934
18.5033
18.7117
18.9185
19.1237
19.3273
19.5293
19.7297
19.9285
20.1256
20.3212
20.5151
20.7074
20.8981
21.0871
21.2745
21.4603
21.6444
21.8269
22.0078
22.1871
22.3647
22.5407
22.715
22.8878
23.0589
23.2284
23.3963
23.5626
23.7274
23.8905
24.052
24.212
24.3703
24.5271
24.6824
24.8361
24.9882
25.1388
25.2879
25.4354
25.5814
25.7259
25.8689
26.0104
26.1505
26.289
26.4261
26.5617
26.6958
26.8285
26.9598
27.0897
27.2181
27.3451
27.4707
27.5949
27.7177
27.8392
27.9593
28.078
28.1954
28.3114
28.4261
28.5395
28.6516
28.7623
28.8718
28.98
29.0869
29.1925
29.2969
29.4
29.5018
29.6025
29.7019
29.8
29.897
29.9928
30.0873
30.1807
30.2729
30.3639
30.4538
30.5425
30.6301
30.7165
30.8018
30.886
30.969
31.051
31.1318
31.2115
31.2902
31.3678
31.4443
31.5197
31.5941
31.6674
31.7397
31.811
31.8812
31.9504
32.0186
32.0858
32.1519
32.2171
32.2813
32.3445
32.4067
32.4679
32.5282
32.5875
32.6459
32.7033
32.7598
32.8153
32.8699
32.9236
32.9763
33.0282
33.0791
33.1291
33.1782
33.2265
33.2738
33.3203
33.3658
33.4105
33.4544
33.4973
33.5394
33.5807
33.6211
33.6606
33.6993
33.7372
33.7742
33.8104
33.8458
33.8803
33.914
33.9469
33.979
34.0103
34.0408
34.0704
34.0993
34.1274
34.1546
34.1811
34.2068
34.2317
34.2559
34.2792
34.3018
34.3236
34.3446
34.3649
34.3844
34.4031
34.421
34.4382
34.4546
34.4703
34.4852
34.4994
34.5128
34.5254
34.5373
34.5485
34.5589
34.5686
34.5775
34.5856
34.593
34.5997
34.6056
34.6108
34.6153
34.619
34.6219
34.6242
34.6256
34.6264
-6.0106
-6.00724
-6.00051
-5.99043
-5.97697
-5.96012
-5.93989
-5.91625
-5.88919
-5.85868
-5.82471
-5.78726
-5.74629
-5.70178
-5.65371
-5.60203
-5.54674
-5.48778
-5.42514
-5.35879
-5.2887
-5.21483
-5.13718
-5.05571
-4.97041
-4.88126
-4.78825
-4.69138
-4.59065
-4.48605
-4.3776
-4.26531
-4.14919
-4.02926
-3.90556
-3.77811
-3.64693
-3.51208
-3.37357
-3.23146
-3.08577
-2.93655
-2.78385
-2.62769
-2.46813
-2.3052
-2.13895
-1.96941
-1.79663
-1.62065
-1.44152
-1.25927
-1.07397
-0.885654
-0.694374
-0.500184
-0.303139
-0.103294
0.0992896
0.304552
0.51243
0.722858
0.935768
1.15109
1.36876
1.5887
1.81083
2.03509
2.26139
2.48966
2.71982
2.95178
3.18548
3.42083
3.65775
3.89615
4.13596
4.3771
4.61947
4.86301
5.10763
5.35325
5.59979
5.84717
6.09531
6.34413
6.59356
6.84351
7.09392
7.3447
7.59579
7.84711
8.09858
8.35015
8.60174
8.85328
9.10471
9.35596
9.60697
9.85768
10.108
10.358
10.6074
10.8563
11.1046
11.3523
11.5993
11.8456
12.091
12.3357
12.5794
12.8222
13.0641
13.3049
13.5447
13.7835
14.0211
14.2575
14.4928
14.7269
14.9597
15.1912
15.4215
15.6504
15.878
16.1042
16.3289
16.5523
16.7743
16.9947
17.2137
17.4312
17.6472
17.8617
18.0747
18.2861
18.4959
18.7042
18.9109
19.116
19.3195
19.5214
19.7217
19.9204
20.1175
20.3129
20.5067
20.6989
20.8895
21.0784
21.2657
21.4513
21.6354
21.8177
21.9985
22.1776
22.3551
22.531
22.7052
22.8778
23.0488
23.2182
23.386
23.5522
23.7168
23.8798
24.0412
24.201
24.3592
24.5159
24.671
24.8246
24.9766
25.127
25.276
25.4234
25.5693
25.7136
25.8565
25.9979
26.1378
26.2762
26.4131
26.5486
26.6826
26.8152
26.9464
27.0761
27.2044
27.3313
27.4567
27.5808
27.7035
27.8249
27.9448
28.0634
28.1807
28.2966
28.4112
28.5245
28.6364
28.7471
28.8564
28.9645
29.0713
29.1768
29.281
29.384
29.4858
29.5863
29.6856
29.7837
29.8805
29.9762
30.0706
30.1639
30.256
30.3469
30.4367
30.5253
30.6128
30.6991
30.7843
30.8684
30.9513
31.0332
31.1139
31.1936
31.2721
31.3496
31.426
31.5014
31.5757
31.6489
31.7212
31.7923
31.8625
31.9316
31.9997
32.0668
32.1329
32.198
32.2621
32.3252
32.3873
32.4485
32.5087
32.5679
32.6262
32.6836
32.74
32.7955
32.85
32.9036
32.9563
33.0081
33.0589
33.1089
33.158
33.2061
33.2534
33.2998
33.3453
33.39
33.4338
33.4767
33.5187
33.5599
33.6003
33.6397
33.6784
33.7162
33.7532
33.7893
33.8247
33.8592
33.8928
33.9257
33.9577
33.989
34.0194
34.0491
34.0779
34.1059
34.1332
34.1596
34.1853
34.2102
34.2343
34.2576
34.2801
34.3019
34.3229
34.3431
34.3626
34.3813
34.3992
34.4164
34.4328
34.4485
34.4634
34.4775
34.4909
34.5035
34.5154
34.5265
34.5369
34.5466
34.5555
34.5636
34.571
34.5777
34.5836
34.5888
34.5932
34.5969
34.5999
34.6021
34.6036
34.6043
-6.00866
-6.00539
-5.99887
-5.98908
-5.97602
-5.95968
-5.94003
-5.91707
-5.89077
-5.86112
-5.82807
-5.79161
-5.7517
-5.70831
-5.6614
-5.61094
-5.55688
-5.4992
-5.43785
-5.3728
-5.304
-5.23143
-5.15504
-5.07482
-4.99072
-4.90273
-4.81083
-4.715
-4.61523
-4.51151
-4.40386
-4.29227
-4.17676
-4.05734
-3.93405
-3.8069
-3.67594
-3.5412
-3.40272
-3.26054
-3.11472
-2.96529
-2.81232
-2.65584
-2.49591
-2.33258
-2.1659
-1.99591
-1.82266
-1.64621
-1.4666
-1.28387
-1.0981
-0.909308
-0.717564
-0.522919
-0.325428
-0.125148
0.0778611
0.283538
0.491819
0.702639
0.91593
1.13162
1.34965
1.56994
1.79241
2.01699
2.24361
2.47218
2.70264
2.93489
3.16886
3.40448
3.64165
3.88029
4.12034
4.3617
4.60429
4.84803
5.09284
5.33864
5.58535
5.8329
6.08119
6.33015
6.57971
6.82979
7.08031
7.33119
7.58237
7.83377
8.08533
8.33696
8.5886
8.84019
9.09166
9.34294
9.59397
9.84469
10.095
10.345
10.5944
10.8433
11.0916
11.3392
11.5862
11.8324
12.0778
12.3223
12.566
12.8088
13.0505
13.2913
13.531
13.7696
14.0071
14.2435
14.4786
14.7125
14.9452
15.1766
15.4067
15.6355
15.8629
16.0889
16.3136
16.5368
16.7585
16.9788
17.1976
17.415
17.6308
17.8451
18.0578
18.269
18.4787
18.6868
18.8932
19.0981
19.3015
19.5032
19.7032
19.9017
20.0986
20.2938
20.4874
20.6793
20.8697
21.0584
21.2454
21.4309
21.6147
21.7968
21.9773
22.1562
22.3335
22.5091
22.6831
22.8555
23.0263
23.1955
23.363
23.529
23.6933
23.8561
24.0173
24.1769
24.3349
24.4913
24.6462
24.7995
24.9513
25.1016
25.2503
25.3975
25.5431
25.6873
25.8299
25.9711
26.1108
26.249
26.3857
26.5209
26.6548
26.7871
26.9181
27.0476
27.1757
27.3023
27.4276
27.5515
27.674
27.7951
27.9149
28.0333
28.1504
28.2661
28.3805
28.4936
28.6053
28.7158
28.8249
28.9328
29.0394
29.1447
29.2488
29.3516
29.4532
29.5535
29.6527
29.7506
29.8473
29.9427
30.037
30.1301
30.2221
30.3128
30.4024
30.4909
30.5782
30.6644
30.7494
30.8333
30.9161
30.9978
31.0784
31.158
31.2364
31.3137
31.39
31.4652
31.5394
31.6125
31.6846
31.7556
31.8256
31.8946
31.9626
32.0296
32.0955
32.1605
32.2245
32.2875
32.3495
32.4106
32.4707
32.5298
32.588
32.6452
32.7015
32.7569
32.8113
32.8648
32.9174
32.9691
33.0199
33.0697
33.1187
33.1668
33.214
33.2603
33.3057
33.3503
33.394
33.4368
33.4788
33.5199
33.5602
33.5996
33.6382
33.6759
33.7128
33.7489
33.7842
33.8186
33.8522
33.885
33.917
33.9482
33.9785
34.0081
34.0369
34.0649
34.0921
34.1185
34.1441
34.1689
34.193
34.2163
34.2388
34.2605
34.2814
34.3016
34.3211
34.3397
34.3576
34.3748
34.3911
34.4068
34.4216
34.4357
34.4491
34.4617
34.4736
34.4847
34.4951
34.5047
34.5136
34.5217
34.5291
34.5357
34.5417
34.5468
34.5513
34.555
34.5579
34.5601
34.5616
34.5623
-6.02148
-6.01826
-6.01184
-6.0022
-5.98934
-5.97324
-5.9539
-5.93128
-5.90538
-5.87616
-5.8436
-5.80768
-5.76836
-5.7256
-5.67937
-5.62963
-5.57634
-5.51946
-5.45895
-5.39477
-5.32687
-5.25522
-5.17977
-5.10049
-5.01734
-4.93028
-4.8393
-4.74436
-4.64544
-4.54254
-4.43563
-4.32473
-4.20983
-4.09094
-3.96809
-3.84129
-3.71058
-3.57599
-3.43756
-3.29534
-3.14939
-2.99974
-2.84647
-2.68962
-2.52925
-2.36543
-2.19821
-2.02764
-1.85379
-1.67671
-1.49645
-1.31308
-1.12664
-0.937193
-0.744793
-0.549496
-0.35136
-0.150442
0.0531945
0.259489
0.468378
0.679796
0.893674
1.10994
1.32854
1.54938
1.77239
1.99751
2.22465
2.45373
2.68469
2.91743
3.15188
3.38796
3.62559
3.86468
4.10516
4.34694
4.58994
4.83409
5.07929
5.32547
5.57255
5.82045
6.06909
6.31839
6.56828
6.81867
7.06949
7.32067
7.57213
7.82381
8.07562
8.3275
8.57939
8.8312
9.08289
9.33438
9.58561
9.83652
10.087
10.3371
10.5867
10.8358
11.0842
11.332
11.579
11.8253
12.0709
12.3155
12.5593
12.8021
13.0439
13.2847
13.5245
13.7632
14.0007
14.2371
14.4722
14.7062
14.9389
15.1703
15.4004
15.6291
15.8565
16.0825
16.3071
16.5303
16.752
16.9722
17.191
17.4083
17.624
17.8383
18.0509
18.2621
18.4716
18.6796
18.886
19.0908
19.294
19.4956
19.6956
19.894
20.0907
20.2858
20.4793
20.6711
20.8614
21.0499
21.2369
21.4222
21.6058
21.7878
21.9682
22.147
22.3241
22.4996
22.6735
22.8457
23.0164
23.1854
23.3528
23.5186
23.6828
23.8454
24.0064
24.1659
24.3237
24.48
24.6348
24.7879
24.9396
25.0897
25.2382
25.3852
25.5308
25.6748
25.8173
25.9583
26.0978
26.2358
26.3724
26.5075
26.6412
26.7734
26.9042
27.0335
27.1615
27.288
27.4131
27.5369
27.6592
27.7802
27.8998
28.0181
28.135
28.2506
28.3649
28.4778
28.5894
28.6997
28.8088
28.9165
29.023
29.1282
29.2321
29.3348
29.4362
29.5364
29.6354
29.7332
29.8298
29.9251
30.0193
30.1123
30.2041
30.2947
30.3842
30.4725
30.5597
30.6458
30.7307
30.8145
30.8972
30.9788
31.0593
31.1387
31.217
31.2942
31.3704
31.4455
31.5196
31.5926
31.6646
31.7355
31.8054
31.8743
31.9422
32.0091
32.075
32.1398
32.2037
32.2666
32.3286
32.3895
32.4496
32.5086
32.5667
32.6239
32.6801
32.7354
32.7897
32.8432
32.8957
32.9473
32.998
33.0478
33.0967
33.1447
33.1918
33.238
33.2834
33.3279
33.3715
33.4143
33.4562
33.4973
33.5375
33.5768
33.6154
33.653
33.6899
33.7259
33.7611
33.7955
33.8291
33.8618
33.8938
33.9249
33.9552
33.9848
34.0135
34.0414
34.0686
34.095
34.1205
34.1453
34.1693
34.1926
34.2151
34.2368
34.2577
34.2778
34.2972
34.3159
34.3337
34.3508
34.3672
34.3828
34.3976
34.4117
34.4251
34.4377
34.4495
34.4606
34.471
34.4806
34.4894
34.4976
34.505
34.5116
34.5175
34.5227
34.5271
34.5308
34.5337
34.5359
34.5374
34.5381
-6.02302
-6.01988
-6.01363
-6.00425
-5.99173
-5.97605
-5.9572
-5.93516
-5.90991
-5.88143
-5.84967
-5.81461
-5.77622
-5.73446
-5.68928
-5.64064
-5.5885
-5.53282
-5.47355
-5.41064
-5.34403
-5.2737
-5.19957
-5.12162
-5.0398
-4.95407
-4.86438
-4.77071
-4.67303
-4.57131
-4.46553
-4.35568
-4.24176
-4.12377
-4.00171
-3.87561
-3.74549
-3.61137
-3.47331
-3.33134
-3.18552
-3.0359
-2.88254
-2.72551
-2.56487
-2.4007
-2.23306
-2.06201
-1.88763
-1.70997
-1.52912
-1.34512
-1.15804
-0.96794
-0.774885
-0.578933
-0.380145
-0.178584
0.02569
0.232612
0.442116
0.654138
0.868608
1.08546
1.30462
1.52601
1.74957
1.97521
2.20287
2.43246
2.66391
2.89713
3.13204
3.36858
3.60665
3.84617
4.08706
4.32925
4.57264
4.81717
5.06274
5.30927
5.55669
5.80492
6.05387
6.30348
6.55365
6.80432
7.05541
7.30685
7.55855
7.81045
8.06248
8.31457
8.56665
8.81865
9.0705
9.32215
9.57353
9.82457
10.0752
10.3254
10.5751
10.8243
11.0728
11.3206
11.5677
11.8141
12.0596
12.3043
12.5481
12.7909
13.0328
13.2736
13.5133
13.752
13.9895
14.2258
14.4609
14.6948
14.9275
15.1588
15.3888
15.6175
15.8448
16.0707
16.2952
16.5182
16.7398
16.96
17.1786
17.3957
17.6114
17.8254
18.038
18.2489
18.4583
18.6662
18.8724
19.077
19.2801
19.4815
19.6813
19.8795
20.076
20.271
20.4643
20.6559
20.8459
21.0343
21.221
21.4061
21.5896
21.7714
21.9516
22.1301
22.3071
22.4823
22.656
22.828
22.9985
23.1673
23.3345
23.5
23.664
23.8264
23.9872
24.1465
24.3041
24.4602
24.6147
24.7677
24.9191
25.069
25.2173
25.3641
25.5094
25.6532
25.7955
25.9363
26.0756
26.2134
26.3498
26.4847
26.6181
26.7501
26.8807
27.0099
27.1376
27.2639
27.3889
27.5124
27.6345
27.7553
27.8748
27.9928
28.1095
28.2249
28.339
28.4517
28.5632
28.6733
28.7821
28.8897
28.996
29.101
29.2047
29.3072
29.4085
29.5085
29.6073
29.7049
29.8013
29.8965
29.9905
30.0833
30.175
30.2655
30.3548
30.443
30.53
30.6159
30.7007
30.7843
30.8668
30.9483
31.0286
31.1079
31.186
31.2631
31.3392
31.4142
31.4881
31.5609
31.6328
31.7036
31.7734
31.8421
31.9099
31.9766
32.0424
32.1071
32.1709
32.2337
32.2955
32.3564
32.4163
32.4752
32.5332
32.5902
32.6464
32.7015
32.7558
32.8091
32.8615
32.913
32.9636
33.0133
33.0621
33.11
33.1571
33.2032
33.2485
33.2929
33.3365
33.3791
33.421
33.4619
33.5021
33.5414
33.5798
33.6174
33.6542
33.6902
33.7253
33.7596
33.7931
33.8258
33.8577
33.8887
33.919
33.9485
33.9772
34.005
34.0321
34.0585
34.084
34.1087
34.1327
34.1559
34.1783
34.2
34.2209
34.241
34.2603
34.2789
34.2968
34.3138
34.3302
34.3457
34.3606
34.3746
34.3879
34.4005
34.4123
34.4234
34.4337
34.4433
34.4522
34.4603
34.4676
34.4743
34.4802
34.4853
34.4897
34.4934
34.4964
34.4986
34.5
34.5008
-6.03367
-6.03058
-6.02444
-6.0152
-6.00288
-5.98746
-5.96892
-5.94724
-5.9224
-5.89437
-5.86313
-5.82863
-5.79086
-5.74976
-5.7053
-5.65743
-5.60612
-5.55131
-5.49296
-5.43101
-5.36542
-5.29613
-5.22309
-5.14626
-5.06558
-4.981
-4.89249
-4.79999
-4.70347
-4.6029
-4.49825
-4.38948
-4.2766
-4.15958
-4.03842
-3.91313
-3.78373
-3.65024
-3.51268
-3.3711
-3.22556
-3.07609
-2.92277
-2.76566
-2.60483
-2.44036
-2.27232
-2.10079
-1.92585
-1.74758
-1.56605
-1.38134
-1.19351
-1.00264
-0.808802
-0.612053
-0.412464
-0.210101
-0.00502985
0.202683
0.41297
0.625764
0.840996
1.05859
1.27849
1.50061
1.72488
1.95122
2.17956
2.40983
2.64193
2.8758
3.11135
3.3485
3.58717
3.82729
4.06876
4.31151
4.55546
4.80052
5.04662
5.29366
5.54158
5.7903
6.03972
6.28978
6.5404
6.7915
7.043
7.29484
7.54693
7.79921
8.05161
8.30404
8.55646
8.80878
9.06094
9.31289
9.56455
9.81586
10.0668
10.3172
10.5671
10.8165
11.0652
11.3133
11.5606
11.8071
12.0528
12.2977
12.5416
12.7845
13.0265
13.2674
13.5073
13.746
13.9836
14.22
14.4552
14.6891
14.9218
15.1531
15.3832
15.6119
15.8392
16.0651
16.2896
16.5126
16.7342
16.9543
17.1729
17.39
17.6055
17.8196
18.032
18.2429
18.4523
18.66
18.8662
19.0707
19.2737
19.475
19.6747
19.8728
20.0692
20.264
20.4572
20.6487
20.8386
21.0269
21.2135
21.3984
21.5817
21.7634
21.9435
22.1219
22.2986
22.4738
22.6473
22.8192
22.9894
23.1581
23.3251
23.4905
23.6544
23.8166
23.9772
24.1363
24.2938
24.4497
24.604
24.7568
24.9081
25.0578
25.206
25.3526
25.4977
25.6414
25.7835
25.9241
26.0632
26.2009
26.3371
26.4718
26.6051
26.7369
26.8673
26.9963
27.1239
27.2501
27.3748
27.4982
27.6202
27.7408
27.8601
27.978
28.0945
28.2098
28.3237
28.4362
28.5475
28.6575
28.7662
28.8736
28.9797
29.0845
29.1881
29.2905
29.3916
29.4915
29.5902
29.6876
29.7839
29.8789
29.9728
30.0654
30.157
30.2473
30.3365
30.4245
30.5114
30.5972
30.6818
30.7653
30.8477
30.9291
31.0093
31.0884
31.1664
31.2434
31.3193
31.3942
31.468
31.5407
31.6125
31.6832
31.7528
31.8215
31.8891
31.9558
32.0214
32.086
32.1497
32.2124
32.2741
32.3349
32.3947
32.4535
32.5114
32.5684
32.6244
32.6795
32.7336
32.7869
32.8392
32.8906
32.9411
32.9907
33.0395
33.0873
33.1343
33.1803
33.2255
33.2699
33.3133
33.3559
33.3977
33.4386
33.4787
33.5179
33.5563
33.5938
33.6305
33.6664
33.7015
33.7357
33.7692
33.8018
33.8336
33.8647
33.8949
33.9243
33.9529
33.9808
34.0078
34.0341
34.0596
34.0843
34.1082
34.1314
34.1538
34.1754
34.1962
34.2163
34.2356
34.2542
34.272
34.289
34.3053
34.3209
34.3357
34.3497
34.363
34.3755
34.3873
34.3984
34.4087
34.4183
34.4271
34.4352
34.4426
34.4492
34.4551
34.4602
34.4646
34.4683
34.4712
34.4734
34.4749
34.4756
-6.03617
-6.03315
-6.02715
-6.01813
-6.00611
-5.99104
-5.97293
-5.95174
-5.92747
-5.90007
-5.86952
-5.83579
-5.79884
-5.75862
-5.7151
-5.66823
-5.61797
-5.56426
-5.50706
-5.4463
-5.38195
-5.31394
-5.24221
-5.16672
-5.0874
-5.00421
-4.9171
-4.82601
-4.7309
-4.63172
-4.52844
-4.42103
-4.30945
-4.19369
-4.07373
-3.94956
-3.8212
-3.68864
-3.55192
-3.41106
-3.2661
-3.1171
-2.96411
-2.80719
-2.64643
-2.4819
-2.31367
-2.14185
-1.96652
-1.78776
-1.60566
-1.42031
-1.2318
-1.04019
-0.845584
-0.648044
-0.447648
-0.244469
-0.0385803
0.169949
0.381046
0.594643
0.810667
1.02905
1.24971
1.47258
1.69759