/*--------------------------------*- C++ -*----------------------------------*\
| =========                 |                                                 |
| \\      /  F ield         | OpenFOAM: The Open Source CFD Toolbox           |
|  \\    /   O peration     | Version:  2212                                  |
|   \\  /    A nd           | Website:  www.openfoam.com                      |
|    \\/     M anipulation  |                                                 |
\*---------------------------------------------------------------------------*/
FoamFile
{
    version     2.0;
    format      ascii;
    arch        "LSB;label=32;scalar=64";
    class       surfaceScalarField;
    location    "160";
    object      phi;
}
// * * * * * * * * * * * * * * * * * * * * * * * * * * * * * * * * * * * * * //

dimensions      [1 0 -1 0 0 0 0];

oriented        oriented;

internalField   nonuniform List<scalar> 
408640
(
-1248.86
1247.39
-2497.26
1247.99
-3744.5
1246.83
-4989.48
1244.58
-6231.01
1241.14
-7467.9
1236.49
-8698.81
1230.51
-9922.35
1223.13
-11137.1
1214.3
-12341.5
1204.03
-13534.4
1192.41
-14714.4
1179.55
-15880.4
1165.61
-17031.6
1150.71
-18166.9
1134.88
-19285.5
1118.12
-20386.3
1100.37
-21468.4
1081.62
-22530.7
1061.89
-23572.5
1041.27
-24592.8
1019.85
-25591
997.742
-26566.5
975.026
-27518.7
951.805
-28447.4
928.184
-29352.1
904.277
-30232.7
880.194
-31089.2
856.039
-31921.5
831.905
-32729.8
807.865
-33514.2
783.973
-34274.8
760.272
-35012
736.791
-35726
713.55
-36416.9
690.567
-37085.1
667.85
-37730.9
645.408
-38354.5
623.244
-38956.2
601.358
-39536.3
579.746
-40095
558.403
-40632.7
537.32
-41149.5
516.493
-41645.7
495.918
-42121.6
475.59
-42577.4
455.51
-43013.4
435.676
-43429.7
416.088
-43826.8
396.746
-44204.7
377.651
-44563.7
358.804
-44904.2
340.206
-45226.3
321.858
-45530.3
303.764
-45816.5
285.926
-46085.1
268.348
-46336.3
251.033
-46570.5
233.986
-46787.9
217.209
-46988.8
200.708
-47173.5
184.484
-47342.2
168.543
-47495.3
152.887
-47633
137.519
-47755.6
122.441
-47863.4
107.657
-47956.7
93.1673
-48035.9
78.9746
-48101.1
65.0801
-48152.7
51.4849
-48191
38.1897
-48216.3
25.1951
-48228.9
12.5012
-48229.1
0.107986
-48217.3
-11.9849
-48193.6
-23.7782
-48158.4
-35.2726
-48112
-46.4693
-48054.7
-57.3696
-47986.8
-67.9752
-47908.6
-78.2878
-47820.3
-88.3095
-47722.3
-98.0423
-47614.9
-107.489
-47498.3
-116.651
-47372.8
-125.533
-47238.7
-134.136
-47096.2
-142.464
-46945.7
-150.52
-46787.4
-158.307
-46621.6
-165.83
-46448.5
-173.09
-46268.4
-180.093
-46081.6
-186.841
-45888.2
-193.339
-45688.6
-199.591
-45483
-205.601
-45271.6
-211.372
-45054.7
-216.91
-44832.4
-222.218
-44605.1
-227.3
-44372.9
-232.162
-44136.1
-236.806
-43894.8
-241.239
-43649.3
-245.463
-43399.7
-249.484
-43146.4
-253.307
-42889.4
-256.934
-42628.9
-260.372
-42365.2
-263.623
-42098.5
-266.694
-41828.8
-269.588
-41556.4
-272.309
-41281.5
-274.862
-41004.2
-277.252
-40724.6
-279.482
-40443
-281.557
-40159.4
-283.481
-39874
-285.259
-39587
-286.894
-39298.6
-288.39
-39008.7
-289.752
-38717.6
-290.984
-38425.4
-292.089
-38132.3
-293.071
-37838.2
-293.935
-37543.4
-294.684
-37248
-295.322
-36952.1
-295.852
-36655.7
-296.278
-36359
-296.603
-36062
-296.831
-35764.9
-296.965
-35467.8
-297.01
-35170.7
-296.966
-34873.8
-296.839
-34577
-296.632
-34280.6
-296.346
-33984.5
-295.985
-33688.8
-295.553
-33393.6
-295.051
-33099
-294.483
-32805.1
-293.852
-32511.8
-293.16
-32219.2
-292.409
-31927.5
-291.603
-31636.7
-290.743
-31346.7
-289.832
-31057.7
-288.872
-30769.7
-287.866
-30482.8
-286.816
-30196.9
-285.724
-29912.2
-284.592
-29628.7
-283.422
-29346.4
-282.216
-29065.3
-280.976
-28785.4
-279.704
-28506.9
-278.401
-28229.7
-277.07
-27953.9
-275.711
-27679.5
-274.327
-27406.4
-272.92
-27134.8
-271.49
-26864.7
-270.04
-26596
-268.57
-26328.8
-267.083
-26063.1
-265.579
-25798.9
-264.06
-25536.3
-262.527
-25275.2
-260.981
-25015.7
-259.423
-24757.7
-257.856
-24501.3
-256.278
-24246.5
-254.693
-23993.3
-253.1
-23741.7
-251.501
-23491.7
-249.897
-23243.3
-248.289
-22996.5
-246.677
-22751.3
-245.062
-22507.8
-243.446
-22265.9
-241.828
-22025.6
-240.21
-21786.9
-238.593
-21549.8
-236.977
-21314.3
-235.362
-21080.5
-233.75
-20848.3
-232.141
-20617.6
-230.536
-20388.6
-228.935
-20161.2
-227.339
-19935.3
-225.748
-19711.1
-224.163
-19488.4
-222.584
-19267.3
-221.012
-19047.8
-219.447
-18829.8
-217.89
-18613.4
-216.341
-18398.5
-214.8
-18185.2
-213.267
-17973.3
-211.744
-17763
-210.23
-17554.2
-208.726
-17346.9
-207.232
-17141.1
-205.749
-16936.7
-204.275
-16733.9
-202.813
-16532.4
-201.361
-16332.4
-199.921
-16133.9
-198.493
-15936.7
-197.076
-15741
-195.671
-15546.6
-194.277
-15353.7
-192.897
-15162.1
-191.528
-14971.8
-190.172
-14782.9
-188.829
-14595.4
-187.499
-14409.1
-186.181
-14224.2
-184.876
-14040.5
-183.585
-13858.2
-182.307
-13677.1
-181.042
-13497.2
-179.791
-13318.6
-178.553
-13141.2
-177.328
-12965.1
-176.117
-12790.1
-174.92
-12616.3
-173.737
-12443.7
-172.567
-12272.2
-171.411
-12101.9
-170.269
-11932.7
-169.141
-11764.6
-168.026
-11597.6
-166.926
-11431.7
-165.839
-11266.9
-164.766
-11103.1
-163.708
-10940.4
-162.663
-10778.8
-161.632
-10618.1
-160.615
-10458.4
-159.612
-10299.8
-158.623
-10142.1
-157.647
-9985.32
-156.686
-9829.54
-155.739
-9674.68
-154.805
-9520.75
-153.885
-9367.73
-152.979
-9215.59
-152.087
-9064.34
-151.209
-8913.95
-150.344
-8764.41
-149.493
-8615.71
-148.656
-8467.83
-147.832
-8320.77
-147.022
-8174.5
-146.226
-8029.01
-145.443
-7884.29
-144.673
-7740.33
-143.917
-7597.11
-143.175
-7454.63
-142.446
-7312.85
-141.73
-7171.78
-141.028
-7031.4
-140.338
-6891.7
-139.662
-6752.66
-139
-6614.27
-138.35
-6476.52
-137.713
-6339.39
-137.09
-6202.87
-136.48
-6066.94
-135.882
-5931.61
-135.298
-5796.84
-134.726
-5662.63
-134.167
-5528.97
-133.621
-5395.85
-133.088
-5263.24
-132.568
-5131.14
-132.06
-4999.54
-131.565
-4868.42
-131.083
-4737.77
-130.613
-4607.58
-130.156
-4477.83
-129.711
-4348.51
-129.279
-4219.62
-128.859
-4091.13
-128.452
-3963.03
-128.057
-3835.32
-127.674
-3707.98
-127.304
-3581
-126.945
-3454.37
-126.6
-3328.07
-126.266
-3202.09
-125.944
-3076.42
-125.635
-2951.04
-125.338
-2825.96
-125.053
-2701.14
-124.78
-2576.59
-124.519
-2452.28
-124.27
-2328.22
-124.033
-2204.37
-123.808
-2080.75
-123.595
-1957.32
-123.394
-1834.08
-123.205
-1711.02
-123.028
-1588.12
-122.863
-1465.38
-122.709
-1342.78
-122.568
-1220.31
-122.438
-1097.95
-122.321
-975.706
-122.215
-853.552
-122.121
-731.479
-122.04
-609.474
-121.972
-487.525
-121.917
-365.617
-121.875
-243.736
-121.848
-121.868
-121.835
-121.836
-1240.74
2487.69
-2481.28
2488.09
-3720.65
2485.79
-4957.78
2481.29
-6191.61
2474.55
-7421.01
2465.46
-8644.75
2453.82
-9861.56
2439.5
-11070.1
2422.41
-12269.1
2402.57
-13457.3
2380.11
-14633.4
2355.25
-15796.5
2328.23
-16945.5
2299.27
-18079.6
2268.44
-19197.7
2235.71
-20298.7
2200.98
-21381.8
2164.21
-22445.9
2125.46
-23490
2084.86
-24513.2
2042.59
-25514.7
1998.84
-26494
1953.79
-27450.3
1907.62
-28383.1
1860.56
-29292.1
1812.81
-30177
1764.62
-31037.6
1716.2
-31873.8
1667.73
-32685.8
1619.38
-33473.5
1571.27
-34237.1
1523.5
-34976.9
1476.15
-35693
1429.27
-36385.7
1382.9
-37055.3
1337.09
-37702.1
1291.84
-38326.4
1247.18
-38928.5
1203.12
-39508.7
1159.64
-40067.4
1116.74
-40604.8
1074.39
-41121.2
1032.59
-41616.9
991.323
-42092.2
950.58
-42547.4
910.354
-42982.6
870.64
-43398.3
831.436
-43794.5
792.738
-44171.7
754.542
-44530
716.85
-44869.7
679.66
-45191.1
642.976
-45494.4
606.8
-45779.8
571.139
-46047.7
535.998
-46298.3
501.384
-46531.8
467.305
-46748.5
433.768
-46948.8
400.78
-47132.9
368.35
-47301
336.484
-47453.5
305.187
-47590.6
274.467
-47712.7
244.329
-47819.9
214.776
-47912.7
185.814
-47991.3
157.445
-48056.1
129.673
-48107.2
102.499
-48145.1
75.9252
-48170
49.9527
-48182.1
24.5816
-48182
-0.18818
-48169.7
-24.3574
-48145.6
-47.9272
-48110.1
-70.8995
-48063.4
-93.2764
-48005.7
-115.061
-47937.5
-136.256
-47859
-156.865
-47770.5
-176.892
-47672.2
-196.342
-47564.6
-215.219
-47447.7
-233.528
-47322
-251.275
-47187.7
-268.466
-47045.1
-285.107
-46894.4
-301.204
-46736
-316.764
-46570
-331.794
-46396.8
-346.3
-46216.6
-360.291
-46029.7
-373.774
-45836.3
-386.756
-45636.6
-399.246
-45430.9
-411.252
-45219.5
-422.782
-45002.5
-433.844
-44780.3
-444.447
-44552.9
-454.6
-44320.8
-464.31
-44083.9
-473.588
-43842.7
-482.441
-43597.2
-490.878
-43347.7
-498.909
-43094.4
-506.543
-42837.5
-513.787
-42577.2
-520.651
-42313.6
-527.145
-42046.9
-533.276
-41777.4
-539.054
-41505.2
-544.487
-41230.4
-549.584
-40953.2
-554.354
-40673.8
-558.806
-40392.3
-562.948
-40108.9
-566.788
-39823.7
-570.335
-39536.9
-573.597
-39248.6
-576.583
-38959
-579.3
-38668.1
-581.756
-38376.2
-583.96
-38083.2
-585.919
-37789.4
-587.64
-37494.9
-589.132
-37199.7
-590.401
-36904
-591.456
-36607.8
-592.302
-36311.4
-592.947
-36014.7
-593.399
-35717.9
-593.663
-35421
-593.747
-35124.2
-593.657
-34827.6
-593.399
-34531.1
-592.979
-34234.9
-592.404
-33939.1
-591.679
-33643.7
-590.811
-33348.9
-589.805
-33054.6
-588.666
-32760.9
-587.401
-32467.9
-586.014
-32175.7
-584.51
-31884.3
-582.895
-31593.7
-581.173
-31304.1
-579.349
-31015.4
-577.428
-30727.7
-575.415
-30441.1
-573.313
-30155.6
-571.128
-29871.2
-568.862
-29588
-566.521
-29306
-564.108
-29025.2
-561.627
-28745.7
-559.081
-28467.5
-556.475
-28190.7
-553.812
-27915.2
-551.095
-27641.1
-548.327
-27368.3
-545.512
-27097.1
-542.653
-26827.2
-539.752
-26558.9
-536.813
-26292
-533.838
-26026.6
-530.83
-25762.8
-527.792
-25500.5
-524.726
-25239.7
-521.635
-24980.5
-518.52
-24722.9
-515.385
-24466.8
-512.231
-24212.3
-509.061
-23959.5
-505.877
-23708.2
-502.68
-23458.5
-499.472
-23210.4
-496.256
-22964
-493.033
-22719.1
-489.805
-22475.9
-486.573
-22234.3
-483.339
-21994.3
-480.104
-21755.9
-476.871
-21519.2
-473.64
-21284
-470.412
-21050.5
-467.189
-20818.6
-463.973
-20588.2
-460.764
-20359.5
-457.563
-20132.4
-454.372
-19906.9
-451.192
-19682.9
-448.023
-19460.5
-444.867
-19239.7
-441.724
-19020.5
-438.596
-18802.8
-435.483
-18586.7
-432.386
-18372.1
-429.305
-18159.1
-426.242
-17947.5
-423.197
-17737.5
-420.171
-17529
-417.165
-17322
-414.178
-17116.4
-411.212
-16912.4
-408.267
-16709.8
-405.344
-16508.6
-402.442
-16308.9
-399.564
-16110.6
-396.708
-15913.7
-393.876
-15718.3
-391.067
-15524.2
-388.283
-15331.5
-385.522
-15140.2
-382.787
-14950.2
-380.077
-14761.6
-377.392
-14574.3
-374.733
-14388.3
-372.099
-14203.6
-369.492
-14020.2
-366.91
-13838.1
-364.356
-13657.3
-361.827
-13477.7
-359.326
-13299.3
-356.852
-13122.2
-354.404
-12946.3
-351.984
-12771.5
-349.591
-12598
-347.226
-12425.6
-344.888
-12254.4
-342.577
-12084.3
-340.294
-11915.4
-338.039
-11747.5
-335.812
-11580.8
-333.612
-11415.1
-331.44
-11250.6
-329.296
-11087
-327.18
-10924.6
-325.092
-10763.1
-323.031
-10602.7
-320.999
-10443.2
-318.994
-10284.8
-317.017
-10127.3
-315.068
-9970.82
-313.146
-9815.26
-311.253
-9660.63
-309.387
-9506.92
-307.548
-9354.11
-305.738
-9202.2
-303.955
-9051.16
-302.199
-8900.99
-300.471
-8751.67
-298.77
-8603.18
-297.097
-8455.52
-295.45
-8308.66
-293.832
-8162.61
-292.24
-8017.33
-290.675
-7872.82
-289.137
-7729.07
-287.626
-7586.06
-286.142
-7443.78
-284.685
-7302.21
-283.254
-7161.35
-281.85
-7021.17
-280.473
-6881.67
-279.122
-6742.83
-277.797
-6604.64
-276.499
-6467.09
-275.227
-6330.16
-273.981
-6193.84
-272.761
-6058.11
-271.567
-5922.97
-270.399
-5788.4
-269.256
-5654.39
-268.14
-5520.92
-267.048
-5387.99
-265.983
-5255.58
-264.943
-5123.67
-263.928
-4992.26
-262.939
-4861.33
-261.975
-4730.87
-261.036
-4600.86
-260.122
-4471.3
-259.233
-4342.18
-258.369
-4213.47
-257.53
-4085.17
-256.716
-3957.26
-255.927
-3829.74
-255.162
-3702.58
-254.422
-3575.79
-253.706
-3449.34
-253.015
-3323.22
-252.348
-3197.42
-251.705
-3071.94
-251.087
-2946.74
-250.493
-2821.84
-249.924
-2697.21
-249.378
-2572.83
-248.857
-2448.71
-248.359
-2324.83
-247.886
-2201.16
-247.436
-2077.71
-247.01
-1954.47
-246.609
-1831.41
-246.231
-1708.52
-245.877
-1585.81
-245.546
-1463.24
-245.24
-1340.82
-244.957
-1218.53
-244.698
-1096.35
-244.463
-974.285
-244.251
-852.309
-244.064
-730.415
-243.902
-608.589
-243.765
-486.818
-243.655
-365.088
-243.572
-243.386
-243.518
-121.696
-243.493
-243.499
-1230.72
3717.93
-2461.13
3718.04
-3690.38
3714.57
-4917.46
3707.91
-6141.43
3698.04
-7361.23
3684.79
-8575.78
3667.9
-9783.93
3647.18
-10984.5
3622.51
-12176.4
3593.93
-13358.4
3561.58
-14529.4
3525.75
-15688.4
3486.75
-16834.5
3444.82
-17966.6
3400.07
-19083.8
3352.42
-20185.1
3301.76
-21269.5
3248.01
-22335.8
3191.25
-23383.1
3131.63
-24410.4
3069.39
-25416.9
3004.79
-26401.7
2938.07
-27364.1
2869.51
-28303.4
2799.42
-29219.2
2728.12
-30111
2655.95
-30978.5
2583.24
-31821.5
2510.28
-32639.9
2437.34
-33433.7
2364.63
-34203
2292.33
-34947.8
2220.56
-35668.4
2149.45
-36365
2079.1
-37037.8
2009.57
-37687.3
1940.94
-38313.7
1873.22
-38917.4
1806.46
-39498.7
1740.65
-40058.1
1675.77
-40595.9
1611.81
-41112.3
1548.74
-41607.9
1486.53
-42082.7
1425.17
-42537.3
1364.64
-42971.9
1304.93
-43386.8
1246.03
-43782.2
1187.91
-44158.6
1130.58
-44516
1074.02
-44854.8
1018.22
-45175.3
963.199
-45477.7
908.944
-45762.2
855.464
-46029.2
802.768
-46278.9
750.864
-46511.6
699.764
-46727.5
649.477
-46926.9
600.015
-47110.2
551.389
-47277.5
503.61
-47429.2
456.686
-47565.5
410.627
-47686.8
365.44
-47793.3
321.133
-47885.3
277.712
-47963.2
235.181
-48027.2
193.545
-48077.7
152.808
-48114.8
112.971
-48139
74.0354
-48150.6
36.0026
-48149.7
-1.12801
-48136.8
-37.3575
-48112.2
-72.6879
-48076
-107.122
-48028.7
-140.663
-47970.5
-173.314
-47901.8
-205.082
-47822.7
-235.971
-47733.7
-265.987
-47635
-295.136
-47526.8
-323.427
-47409.5
-350.866
-47283.3
-377.463
-47148.6
-403.225
-47005.6
-428.161
-46854.5
-452.283
-46695.7
-475.598
-46529.4
-498.119
-46355.8
-519.855
-46175.3
-540.817
-45988.1
-561.018
-45794.3
-580.468
-45594.4
-599.181
-45388.5
-617.167
-45176.8
-634.439
-44959.6
-651.01
-44737.1
-666.893
-44509.6
-682.1
-44277.2
-696.644
-44040.2
-710.539
-43798.8
-723.798
-43553.2
-736.435
-43303.6
-748.461
-43050.2
-759.891
-42793.2
-770.739
-42532.8
-781.016
-42269.1
-790.738
-42002.4
-799.917
-41732.8
-808.565
-41460.5
-816.698
-41185.7
-824.327
-40908.5
-831.466
-40629.1
-838.127
-40347.6
-844.324
-40064.3
-850.069
-39779.1
-855.375
-39492.4
-860.253
-39204.2
-864.717
-38914.6
-868.779
-38623.8
-872.45
-38331.9
-875.743
-38039.1
-878.668
-37745.4
-881.239
-37450.9
-883.464
-37155.9
-885.357
-36860.3
-886.927
-36564.3
-888.186
-36268
-889.144
-35971.5
-889.812
-35674.8
-890.199
-35378.1
-890.315
-35081.5
-890.171
-34785
-889.775
-34488.7
-889.137
-34192.8
-888.267
-33897.1
-887.172
-33602
-885.863
-33307.3
-884.347
-33013.2
-882.632
-32719.8
-880.728
-32427
-878.641
-32135.1
-876.38
-31843.9
-873.951
-31553.6
-871.363
-31264.2
-868.623
-30975.7
-865.737
-30688.3
-862.713
-30402
-859.556
-30116.7
-856.274
-29832.6
-852.872
-29549.6
-849.356
-29267.9
-845.734
-28987.4
-842.009
-28708.1
-838.188
-28430.2
-834.277
-28153.6
-830.279
-27878.4
-826.201
-27604.6
-822.048
-27332.1
-817.823
-27061.1
-813.533
-26791.6
-809.18
-26523.5
-804.77
-26256.9
-800.307
-25991.9
-795.794
-25728.3
-791.236
-25466.3
-786.637
-25205.8
-781.999
-24946.9
-777.327
-24689.6
-772.624
-24433.8
-767.894
-24179.6
-763.139
-23927
-758.362
-23676
-753.567
-23426.6
-748.756
-23178.8
-743.932
-22932.7
-739.098
-22688.1
-734.256
-22445.2
-729.409
-22203.9
-724.559
-21964.2
-719.708
-21726.1
-714.859
-21489.6
-710.013
-21254.8
-705.173
-21021.5
-700.34
-20789.9
-695.517
-20559.8
-690.704
-20331.4
-685.905
-20104.6
-681.12
-19879.3
-676.351
-19655.7
-671.599
-19433.6
-666.867
-19213.1
-662.154
-18994.1
-657.463
-18776.7
-652.795
-18560.9
-648.151
-18346.5
-643.532
-18133.8
-638.94
-17922.5
-634.374
-17712.8
-629.837
-17504.5
-625.329
-17297.8
-620.851
-17092.5
-616.404
-16888.7
-611.989
-16686.4
-607.606
-16485.5
-603.256
-16286
-598.94
-16088
-594.659
-15891.4
-590.412
-15696.2
-586.201
-15502.4
-582.026
-15310
-577.888
-15118.9
-573.788
-14929.2
-569.724
-14740.8
-565.699
-14553.8
-561.712
-14368
-557.764
-14183.6
-553.855
-14000.5
-549.985
-13818.6
-546.155
-13638
-542.365
-13458.7
-538.615
-13280.6
-534.905
-13103.7
-531.236
-12928
-527.608
-12753.5
-524.021
-12580.2
-520.475
-12408
-516.97
-12237.1
-513.506
-12067.2
-510.084
-11898.5
-506.703
-11730.9
-503.364
-11564.4
-500.066
-11399
-496.811
-11234.6
-493.597
-11071.3
-490.424
-10909.1
-487.294
-10747.8
-484.205
-10587.6
-481.158
-10428.4
-478.153
-10270.2
-475.189
-10113
-472.267
-9956.67
-469.387
-9801.32
-466.548
-9646.91
-463.751
-9493.42
-460.995
-9340.83
-458.281
-9189.13
-455.608
-9038.3
-452.976
-8888.34
-450.386
-8739.23
-447.836
-8590.95
-445.328
-8443.5
-442.86
-8296.85
-440.433
-8151
-438.047
-8005.93
-435.701
-7861.63
-433.396
-7718.08
-431.132
-7575.27
-428.907
-7433.19
-426.723
-7291.83
-424.578
-7151.16
-422.474
-7011.18
-420.409
-6871.88
-418.384
-6733.24
-416.398
-6595.25
-414.452
-6457.89
-412.545
-6321.15
-410.677
-6185.02
-408.848
-6049.49
-407.058
-5914.54
-405.307
-5780.16
-403.595
-5646.34
-401.921
-5513.07
-400.286
-5380.32
-398.689
-5248.1
-397.13
-5116.38
-395.609
-4985.15
-394.126
-4854.41
-392.681
-4724.13
-391.273
-4594.31
-389.903
-4464.94
-388.571
-4336
-387.276
-4207.47
-386.018
-4079.35
-384.798
-3951.63
-383.615
-3824.28
-382.468
-3697.31
-381.358
-3570.7
-380.286
-3444.42
-379.25
-3318.49
-378.25
-3192.87
-377.287
-3067.56
-376.36
-2942.55
-375.47
-2817.82
-374.616
-2693.37
-373.798
-2569.17
-373.017
-2445.22
-372.271
-2321.51
-371.561
-2198.03
-370.888
-2074.76
-370.25
-1951.68
-369.647
-1828.8
-369.081
-1706.09
-368.55
-1583.55
-368.055
-1461.16
-367.595
-1338.91
-367.171
-1216.79
-366.783
-1094.79
-366.431
-972.898
-366.114
-851.096
-365.833
-729.375
-365.59
-607.723
-365.385
-486.125
-365.219
-364.569
-365.095
-243.04
-365.015
-121.521
-364.979
-364.987
-1217.63
4935.04
-2434.88
4934.76
-3650.95
4930.11
-4864.97
4921.4
-6076.08
4908.62
-7283.38
4891.55
-8485.92
4869.9
-9682.72
4843.44
-10872.8
4812.04
-12055.1
4775.72
-13228.8
4734.64
-14392.7
4689.11
-15546
4639.44
-16687.6
4585.9
-17816.7
4528.58
-18932.3
4467.39
-20033.2
4402.17
-21118.7
4332.83
-22187.4
4259.42
-23238.5
4182.12
-24270.8
4101.18
-25283.5
4016.88
-26275.5
3929.55
-27246.1
3839.5
-28194.3
3747.12
-29119.6
3652.83
-30021.2
3557.07
-30898.7
3460.25
-31751.7
3362.8
-32579.9
3265.08
-33383.2
3167.41
-34161.4
3070.04
-34914.5
2973.23
-35642.6
2877.16
-36345.9
2782.02
-37024.7
2687.94
-37679.2
2595.06
-38309.8
2503.46
-38916.9
2413.21
-39500.9
2324.32
-40062.3
2236.79
-40601.4
2150.61
-41118.7
2065.74
-41614.7
1982.14
-42089.6
1899.79
-42543.9
1818.66
-42978
1738.71
-43392.2
1659.92
-43786.8
1582.25
-44162.1
1505.67
-44518.6
1430.17
-44856.3
1355.73
-45175.7
1282.34
-45477
1209.98
-45760.4
1138.68
-46026.3
1068.42
-46274.9
999.229
-46506.5
931.11
-46721.3
864.079
-46919.6
798.149
-47101.7
733.336
-47268
669.652
-47418.6
607.111
-47553.8
545.723
-47674.1
485.499
-47779.5
426.45
-47870.5
368.581
-47947.4
311.902
-48010.4
256.416
-48059.9
202.129
-48096.1
149.043
-48119.3
97.1601
-48129.9
46.4814
-48128.1
-2.99371
-48114.3
-51.2669
-48088.8
-98.3406
-48051.8
-144.219
-48003.6
-188.905
-47944.6
-232.406
-47875
-274.728
-47795.2
-315.878
-47705.3
-355.863
-47605.8
-394.694
-47496.9
-432.379
-47378.9
-468.929
-47252
-504.354
-47116.6
-538.667
-46972.9
-571.88
-46821.2
-604.005
-46661.8
-635.056
-46494.9
-665.047
-46320.7
-693.993
-46139.6
-721.907
-45951.9
-748.805
-45757.6
-774.704
-45557.2
-799.618
-45350.7
-823.564
-45138.6
-846.559
-44921
-868.619
-44698.1
-889.761
-44470.1
-910.004
-44237.4
-929.363
-44000
-947.857
-43758.3
-965.502
-43512.3
-982.318
-43262.4
-998.322
-43008.7
-1013.53
-42751.4
-1027.96
-42490.8
-1041.64
-42226.9
-1054.57
-41959.9
-1066.78
-41690.1
-1078.28
-41417.7
-1089.1
-41142.7
-1099.24
-40865.3
-1108.73
-40585.8
-1117.59
-40304.2
-1125.82
-40020.7
-1133.46
-39735.5
-1140.51
-39448.7
-1146.99
-39160.4
-1152.92
-38870.8
-1158.31
-38579.9
-1163.18
-38288
-1167.55
-37995.2
-1171.43
-37701.5
-1174.83
-37407.1
-1177.78
-37112
-1180.28
-36816.5
-1182.36
-36520.5
-1184.02
-36224.3
-1185.28
-35927.8
-1186.15
-35631.3
-1186.65
-35334.7
-1186.79
-35038.2
-1186.58
-34741.8
-1186.04
-34445.6
-1185.17
-34149.8
-1184
-33854.3
-1182.53
-33559.3
-1180.77
-33264.8
-1178.73
-32970.9
-1176.44
-32677.6
-1173.88
-32385
-1171.09
-32093.2
-1168.07
-31802.2
-1164.82
-31512.1
-1161.36
-31222.9
-1157.69
-30934.7
-1153.84
-30647.5
-1149.8
-30361.4
-1145.58
-30076.3
-1141.19
-29792.4
-1136.65
-29509.7
-1131.96
-29228.2
-1127.12
-28947.9
-1122.15
-28669
-1117.05
-28391.3
-1111.83
-28115
-1106.49
-27840
-1101.05
-27566.4
-1095.51
-27294.2
-1089.87
-27023.5
-1084.15
-26754.2
-1078.34
-26486.4
-1072.46
-26220.1
-1066.5
-25955.3
-1060.48
-25692.1
-1054.4
-25430.3
-1048.27
-25170.1
-1042.08
-24911.5
-1035.85
-24654.4
-1029.58
-24398.9
-1023.27
-24145
-1016.93
-23892.7
-1010.56
-23642
-1004.16
-23392.9
-997.749
-23145.5
-991.316
-22899.6
-984.871
-22655.3
-978.415
-22412.7
-971.952
-22171.7
-965.485
-21932.2
-959.018
-21694.5
-952.552
-21458.3
-946.092
-21223.7
-939.639
-20990.8
-933.196
-20759.4
-926.766
-20529.7
-920.351
-20301.5
-913.953
-20075
-907.574
-19850
-901.216
-19626.7
-894.883
-19404.9
-888.574
-19184.7
-882.292
-18966
-876.04
-18748.9
-869.817
-18533.3
-863.627
-18319.3
-857.471
-18106.8
-851.349
-17895.8
-845.264
-17686.4
-839.217
-17478.4
-833.208
-17272
-827.24
-17067
-821.313
-16863.5
-815.428
-16661.4
-809.586
-16460.8
-803.789
-16261.6
-798.037
-16063.9
-792.331
-15867.6
-786.671
-15672.6
-781.059
-15479.1
-775.495
-15286.9
-769.981
-15096.2
-764.515
-14906.7
-759.1
-14718.6
-753.736
-14531.8
-748.423
-14346.4
-743.161
-14162.2
-737.951
-13979.3
-732.795
-13797.7
-727.69
-13617.4
-722.64
-13438.3
-717.642
-13260.5
-712.699
-13083.8
-707.81
-12908.4
-702.975
-12734.2
-698.194
-12561.1
-693.469
-12389.2
-688.798
-12218.5
-684.182
-12048.9
-679.622
-11880.5
-675.117
-11713.1
-670.668
-11546.8
-666.274
-11381.7
-661.935
-11217.6
-657.652
-11054.5
-653.425
-10892.5
-649.254
-10731.5
-645.138
-10571.5
-641.078
-10412.6
-637.073
-10254.6
-633.124
-10097.6
-629.231
-9941.51
-625.393
-9786.4
-621.61
-9632.22
-617.883
-9478.96
-614.211
-9326.6
-610.594
-9175.13
-607.033
-9024.53
-603.526
-8874.8
-600.074
-8725.91
-596.677
-8577.86
-593.335
-8430.63
-590.047
-8284.2
-586.813
-8138.57
-583.634
-7993.72
-580.508
-7849.64
-577.437
-7706.31
-574.419
-7563.72
-571.455
-7421.85
-568.544
-7280.7
-565.687
-7140.25
-562.883
-7000.48
-560.132
-6861.39
-557.433
-6722.96
-554.788
-6585.18
-552.195
-6448.03
-549.654
-6311.5
-547.165
-6175.58
-544.728
-6040.25
-542.344
-5905.51
-540.011
-5771.34
-537.729
-5637.72
-535.499
-5504.64
-533.32
-5372.1
-531.192
-5240.08
-529.114
-5108.56
-527.088
-4977.54
-525.112
-4846.99
-523.187
-4716.92
-521.311
-4587.3
-519.486
-4458.12
-517.711
-4329.37
-515.986
-4201.04
-514.31
-4073.12
-512.684
-3945.59
-511.107
-3818.44
-509.58
-3691.66
-508.101
-3565.24
-506.672
-3439.16
-505.291
-3313.42
-503.96
-3187.99
-502.677
-3062.87
-501.442
-2938.05
-500.256
-2813.52
-499.118
-2689.25
-498.028
-2565.24
-496.987
-2441.49
-495.993
-2317.97
-495.048
-2194.67
-494.15
-2071.58
-493.3
-1948.7
-492.498
-1826
-491.743
-1703.48
-491.036
-1581.13
-490.376
-1458.93
-489.764
-1336.87
-489.199
-1214.94
-488.681
-1093.12
-488.212
-971.412
-487.789
-849.796
-487.416
-728.262
-487.091
-606.795
-486.818
-485.384
-486.597
-364.014
-486.432
-242.671
-486.325
-121.339
-486.278
-486.293
-1204.02
6138.46
-2407.55
6137.7
-3609.89
6131.85
-4810.28
6121.19
-6007.97
6105.71
-7202.16
6085.13
-8392.04
6059.16
-9576.78
6027.56
-10755.5
5990.18
-11927.5
5947.01
-13091.7
5898.23
-14247.3
5844.11
-15393.5
5784.99
-16529.3
5721.1
-17653.9
5652.52
-18766.4
5579.14
-19865.6
5500.78
-20950.7
5417.3
-22020.7
5328.72
-23074.4
5235.21
-24110.9
5137.02
-25129.1
5034.45
-26128
4927.83
-27106.7
4817.54
-28064.2
4703.99
-28999.6
4587.67
-29912.2
4469.07
-30801.2
4348.71
-31666
4227.11
-32506.2
4104.73
-33321.3
3981.98
-34111
3859.26
-34875.1
3736.89
-35613.6
3615.21
-36326.5
3494.48
-37014
3374.96
-37676.2
3256.87
-38313.5
3140.39
-38926.3
3025.64
-39515.1
2912.7
-40080.2
2801.59
-40622.3
2692.32
-41141.7
2584.87
-41639.1
2479.19
-42114.9
2375.26
-42569.6
2273.01
-43003.5
2172.41
-43417.3
2073.4
-43811.3
1975.91
-44185.8
1879.9
-44541.2
1785.32
-44877.8
1692.12
-45196
1600.28
-45496
1509.78
-45778.2
1420.61
-46042.8
1332.77
-46290
1246.27
-46520.3
1161.13
-46733.7
1077.35
-46930.7
994.948
-47111.5
913.948
-47276.4
834.364
-47425.7
756.209
-47559.6
679.499
-47678.6
604.246
-47782.7
530.462
-47872.5
458.157
-47948
387.339
-48009.8
318.015
-48058
250.191
-48092.9
183.869
-48114.9
119.053
-48124.3
55.7435
-48121.3
-6.06053
-48106.3
-66.361
-48079.6
-125.161
-48041.5
-182.466
-47992.2
-238.28
-47932
-292.612
-47861.4
-345.468
-47780.4
-396.859
-47689.6
-446.794
-47589
-495.285
-47479.1
-542.343
-47360.1
-587.982
-47232.3
-632.215
-47095.9
-675.057
-46951.3
-716.523
-46798.7
-756.63
-46638.4
-795.394
-46470.6
-832.833
-46295.6
-868.964
-46113.7
-903.807
-45925.1
-937.38
-45730.1
-969.703
-45528.9
-1000.8
-45321.8
-1030.68
-45109
-1059.37
-44890.7
-1086.9
-44667.1
-1113.28
-44438.6
-1138.53
-44205.2
-1162.68
-43967.3
-1185.75
-43725
-1207.76
-43478.5
-1228.74
-43228.1
-1248.69
-42973.9
-1267.66
-42716.1
-1285.65
-42455
-1302.7
-42190.7
-1318.82
-41923.3
-1334.04
-41653.2
-1348.38
-41380.3
-1361.85
-41105
-1374.49
-40827.3
-1386.32
-40547.5
-1397.35
-40265.6
-1407.6
-39981.9
-1417.11
-39696.4
-1425.88
-39409.4
-1433.95
-39120.9
-1441.32
-38831.1
-1448.03
-38540.1
-1454.08
-38248
-1459.51
-37955
-1464.33
-37661.2
-1468.55
-37366.6
-1472.21
-37071.5
-1475.31
-36775.9
-1477.87
-36479.9
-1479.92
-36183.6
-1481.46
-35887.1
-1482.53
-35590.5
-1483.13
-35293.9
-1483.27
-34997.4
-1482.99
-34701
-1482.29
-34404.9
-1481.18
-34109.1
-1479.69
-33813.7
-1477.83
-33518.7
-1475.61
-33224.3
-1473.05
-32930.4
-1470.16
-32637.3
-1466.95
-32344.8
-1463.44
-32053.1
-1459.64
-31762.2
-1455.56
-31472.2
-1451.22
-31183.2
-1446.63
-30895.1
-1441.79
-30608.1
-1436.73
-30322.1
-1431.44
-30037.2
-1425.95
-29753.5
-1420.26
-29470.9
-1414.38
-29189.6
-1408.32
-28909.6
-1402.1
-28630.8
-1395.71
-28353.3
-1389.17
-28077.2
-1382.5
-27802.4
-1375.69
-27529.1
-1368.75
-27257.1
-1361.7
-26986.6
-1354.53
-26717.6
-1347.27
-26450
-1339.91
-26184
-1332.46
-25919.4
-1324.93
-25656.4
-1317.32
-25394.9
-1309.65
-25134.9
-1301.91
-24876.5
-1294.12
-24619.7
-1286.27
-24364.5
-1278.38
-24110.9
-1270.45
-23858.8
-1262.49
-23608.4
-1254.49
-23359.6
-1246.47
-23112.4
-1238.43
-22866.8
-1230.37
-22622.8
-1222.3
-22380.4
-1214.22
-22139.7
-1206.14
-21900.5
-1198.05
-21663
-1189.97
-21427.1
-1181.89
-21192.8
-1173.83
-20960.2
-1165.77
-20729.1
-1157.74
-20499.6
-1149.72
-20271.8
-1141.72
-20045.5
-1133.75
-19820.8
-1125.8
-19597.8
-1117.88
-19376.2
-1110
-19156.3
-1102.15
-18937.9
-1094.33
-18721.1
-1086.56
-18505.8
-1078.82
-18292.1
-1071.13
-18079.9
-1063.48
-17869.2
-1055.87
-17660
-1048.32
-17452.3
-1040.81
-17246.1
-1033.35
-17041.4
-1025.94
-16838.2
-1018.59
-16636.4
-1011.29
-16436.1
-1004.05
-16237.2
-996.858
-16039.7
-989.728
-15843.7
-982.657
-15649
-975.645
-15455.7
-968.693
-15263.9
-961.802
-15073.3
-954.974
-14884.2
-948.208
-14696.3
-941.505
-14509.8
-934.866
-14324.6
-928.292
-14140.7
-921.784
-13958.1
-915.34
-13776.8
-908.963
-13596.7
-902.653
-13417.9
-896.41
-13240.3
-890.233
-13063.9
-884.125
-12888.7
-878.084
-12714.8
-872.112
-12542
-866.208
-12370.3
-860.373
-12199.9
-854.607
-12030.5
-848.91
-11862.3
-843.282
-11695.2
-837.723
-11529.2
-832.233
-11364.2
-826.814
-11200.4
-821.463
-11037.6
-816.182
-10875.8
-810.971
-10715.1
-805.829
-10555.3
-800.757
-10396.6
-795.754
-10238.9
-790.821
-10082.1
-785.957
-9926.26
-781.163
-9771.38
-776.438
-9617.43
-771.782
-9464.4
-767.195
-9312.27
-762.677
-9161.03
-758.228
-9010.66
-753.847
-8861.16
-749.535
-8712.5
-745.291
-8564.67
-741.116
-8417.66
-737.009
-8271.46
-732.969
-8126.05
-728.998
-7981.42
-725.093
-7837.56
-721.257
-7694.45
-717.487
-7552.07
-713.785
-7410.43
-710.149
-7269.49
-706.58
-7129.25
-703.077
-6989.7
-699.64
-6850.83
-696.27
-6712.61
-692.965
-6575.03
-689.726
-6438.09
-686.552
-6301.78
-683.443
-6166.06
-680.399
-6030.95
-677.421
-5896.41
-674.506
-5762.44
-671.656
-5629.03
-668.87
-5496.16
-666.148
-5363.82
-663.49
-5232
-660.896
-5100.69
-658.364
-4969.86
-655.896
-4839.52
-653.491
-4709.65
-651.149
-4580.22
-648.869
-4451.25
-646.652
-4322.7
-644.497
-4194.57
-642.404
-4066.84
-640.372
-3939.51
-638.403
-3812.55
-636.495
-3685.97
-634.648
-3559.74
-632.863
-3433.86
-631.139
-3308.31
-629.475
-3183.07
-627.872
-3058.15
-626.33
-2933.52
-624.849
-2809.18
-623.427
-2685.1
-622.066
-2561.29
-620.765
-2437.72
-619.525
-2314.39
-618.343
-2191.29
-617.222
-2068.39
-616.16
-1945.7
-615.158
-1823.19
-614.215
-1700.86
-613.332
-1578.69
-612.508
-1456.68
-611.743
-1334.81
-611.038
-1213.06
-610.391
-1091.44
-609.804
-969.914
-609.277
-848.486
-608.81
-727.138
-608.405
-605.859
-608.063
-484.635
-607.788
-363.452
-607.582
-242.295
-607.448
-121.149
-607.391
-607.409
-1188.99
7326.78
-2377.41
7325.45
-3564.65
7318.41
-4750.05
7305.92
-5932.95
7287.93
-7112.67
7264.17
-8288.51
7234.32
-9459.78
7198.14
-10625.8
7155.47
-11785.8
7106.3
-12939
7050.76
-14084.7
6989.13
-15222.2
6921.7
-16350.5
6848.7
-17468.9
6770.17
-18576.4
6685.97
-19672.3
6595.9
-20755.5
6499.78
-21825.1
6397.61
-22880.1
6289.51
-23919.5
6175.72
-24942.3
6056.51
-25947.4
5932.22
-26933.8
5803.24
-27900.5
5669.99
-28846.5
5532.98
-29770.8
5392.73
-30672.5
5249.82
-31550.9
5104.83
-32405
4958.3
-33234.4
4810.76
-34038.4
4662.69
-34816.6
4514.56
-35568.7
4366.8
-36294.5
4219.83
-36994
4074.02
-37667.3
3929.74
-38314.6
3787.27
-38936.2
3646.86
-39532.6
3508.66
-40104.2
3372.79
-40651.5
3239.28
-41175.1
3108.15
-41675.6
2979.39
-42153.7
2852.97
-42609.8
2728.82
-43044.6
2606.89
-43458.5
2487.09
-43852.3
2369.34
-44226.2
2253.53
-44580.7
2139.58
-44916.2
2027.42
-45233.2
1916.97
-45531.9
1808.21
-45812.6
1701.09
-46075.6
1595.61
-46321.4
1491.77
-46550
1389.57
-46761.9
1289.02
-46957.3
1190.14
-47136.5
1092.95
-47299.8
997.462
-47447.4
903.695
-47579.8
811.665
-47697.1
721.388
-47799.6
632.876