/*--------------------------------*- C++ -*----------------------------------*\
| =========                 |                                                 |
| \\      /  F ield         | OpenFOAM: The Open Source CFD Toolbox           |
|  \\    /   O peration     | Version:  2212                                  |
|   \\  /    A nd           | Website:  www.openfoam.com                      |
|    \\/     M anipulation  |                                                 |
\*---------------------------------------------------------------------------*/
FoamFile
{
    version     2.0;
    format      ascii;
    arch        "LSB;label=32;scalar=64";
    class       surfaceScalarField;
    location    "770";
    object      phi;
}
// * * * * * * * * * * * * * * * * * * * * * * * * * * * * * * * * * * * * * //

dimensions      [1 0 -1 0 0 0 0];

oriented        oriented;

internalField   nonuniform List<scalar> 
408640
(
-1024.59
1024.01
-2018.83
994.109
-2955.42
936.476
-3818.38
862.85
-4604.43
785.948
-5320.5
715.977
-5979.92
659.341
-6598.19
618.189
-7189.85
591.573
-7766.61
576.681
-8336.86
570.177
-8905.91
568.973
-9476.66
570.67
-10050.3
573.61
-10627.2
576.782
-11206.9
579.638
-11788.9
581.937
-12372.6
583.612
-12957.4
584.683
-13542.7
585.205
-14128
585.244
-14712.9
584.862
-15297.1
584.112
-15880.2
583.042
-16462
581.686
-17042.1
580.076
-17620.4
578.238
-18196.7
576.191
-18770.7
573.952
-19342.3
571.537
-19911.3
568.958
-20477.6
566.224
-21041
563.345
-21601.4
560.329
-22158.7
557.183
-22712.6
553.912
-23263.2
550.522
-23810.3
547.018
-24353.8
543.404
-24893.5
539.684
-25429.4
535.862
-25961.4
531.941
-26489.4
527.923
-27013.3
523.813
-27532.9
519.612
-28048.3
515.324
-28559.3
510.95
-29065.8
506.493
-29567.8
501.955
-30065.2
497.339
-30557.9
492.647
-31045.8
487.88
-31528.9
483.041
-32007.1
478.131
-32480.3
473.153
-32948.4
468.108
-33411.5
462.999
-33869.3
457.827
-34322
452.593
-34769.3
447.3
-35211.3
441.95
-35647.8
436.544
-36078.9
431.083
-36504.5
425.571
-36924.6
420.008
-37339
414.396
-37747.8
408.737
-38150.8
403.032
-38548.1
397.284
-38939.6
391.494
-39325.3
385.663
-39705.1
379.794
-40079
373.887
-40447
367.945
-40809
361.97
-41164.9
355.962
-41514.9
349.924
-41858.7
343.857
-42196.5
337.763
-42528.2
331.643
-42853.7
325.499
-43173
319.332
-43486.1
313.145
-43793.1
306.938
-44093.8
300.714
-44388.3
294.473
-44676.5
288.218
-44958.4
281.95
-45234.1
275.67
-45503.4
269.38
-45766.5
263.081
-46023.3
256.775
-46273.7
250.463
-46517.9
244.147
-46755.7
237.828
-46987.2
231.507
-47212.3
225.187
-47431.2
218.868
-47643.7
212.551
-47849.9
206.239
-48049.9
199.932
-48243.5
193.631
-48430.8
187.339
-48611.8
181.056
-48786.6
174.783
-48955.1
168.522
-49117.3
162.274
-49273.3
156.04
-49423.1
149.822
-49566.7
143.62
-49704.1
137.435
-49835.4
131.27
-49960.5
125.124
-50079.4
118.999
-50192.3
112.896
-50299.1
106.816
-50399.8
100.761
-50494.5
94.7297
-50583.2
88.7249
-50665.9
82.7471
-50742.7
76.7971
-50813.5
70.8758
-50878.5
64.9843
-50937.5
59.1232
-50990.8
53.2935
-51038.3
47.4959
-51080
41.7313
-51115.9
36.0004
-51146.2
30.304
-51170.8
24.6428
-51189.8
19.0174
-51203.2
13.4287
-51211
7.87716
-51213.4
2.3635
-51210.2
-3.11169
-51201.6
-8.5478
-51187.7
-13.9443
-51168.3
-19.3006
-51143.7
-24.6162
-51113.8
-29.8906
-51078.6
-35.1232
-51038.3
-40.3138
-50992.8
-45.4617
-50942.2
-50.5667
-50886.5
-55.6282
-50825.9
-60.646
-50760.2
-65.6196
-50689.7
-70.5488
-50614.2
-75.4331
-50533.9
-80.2724
-50448.8
-85.0663
-50359
-89.8147
-50264.5
-94.5171
-50165.3
-99.1735
-50061.5
-103.784
-49953.1
-108.347
-49840.3
-112.864
-49722.9
-117.335
-49601.2
-121.758
-49475
-126.135
-49344.6
-130.464
-49209.8
-134.746
-49070.8
-138.981
-48927.7
-143.169
-48780.4
-147.309
-48629
-151.402
-48473.5
-155.448
-48314.1
-159.446
-48150.7
-163.398
-47983.4
-167.301
-47812.3
-171.158
-47637.4
-174.968
-47458.6
-178.731
-47276.2
-182.447
-47090.1
-186.116
-46900.4
-189.738
-46707.2
-193.314
-46510.4
-196.844
-46310.1
-200.327
-46106.4
-203.764
-45899.3
-207.156
-45688.8
-210.501
-45475.1
-213.802
-45258.1
-217.057
-45037.8
-220.267
-44814.5
-223.432
-44588
-226.553
-44358.4
-229.629
-44125.8
-232.661
-43890.3
-235.65
-43651.8
-238.595
-43410.3
-241.497
-43166.1
-244.355
-42919
-247.172
-42669.1
-249.945
-42416.6
-252.677
-42161.3
-255.367
-41903.4
-258.016
-41642.9
-260.624
-41379.8
-263.19
-41114.2
-265.717
-40846.1
-268.203
-40575.6
-270.65
-40302.6
-273.057
-40027.4
-275.425
-39749.7
-277.755
-39469.8
-280.046
-39187.7
-282.299
-38903.3
-284.515
-38616.8
-286.693
-38328.1
-288.835
-38037.3
-290.94
-37744.4
-293.009
-37449.6
-295.042
-37152.7
-297.04
-36853.9
-299.003
-36553.1
-300.931
-36250.5
-302.825
-35946
-304.685
-35639.6
-306.512
-35331.5
-308.306
-35021.7
-310.067
-34710.1
-311.796
-34396.8
-313.493
-34081.8
-315.158
-33765.2
-316.792
-33447.1
-318.396
-33127.3
-319.969
-32806
-321.512
-32483.2
-323.025
-32158.9
-324.51
-31833.2
-325.965
-31506.1
-327.392
-31177.5
-328.791
-30847.6
-330.162
-30516.4
-331.506
-30183.8
-332.823
-29849.9
-334.113
-29514.8
-335.377
-29178.5
-336.615
-28840.9
-337.827
-28502.2
-339.014
-28162.3
-340.177
-27821.3
-341.315
-27479.1
-342.429
-27135.9
-343.519
-26791.6
-344.585
-26446.3
-345.629
-26099.9
-346.65
-25752.6
-347.648
-25404.3
-348.625
-25055
-349.579
-24704.8
-350.513
-24353.7
-351.425
-24001.7
-352.316
-23648.8
-353.187
-23295.1
-354.037
-22940.6
-354.868
-22585.3
-355.679
-22229.1
-356.471
-21872.2
-357.244
-21514.6
-357.998
-21156.2
-358.734
-20797.1
-359.452
-20437.3
-360.152
-20076.8
-360.834
-19715.7
-361.499
-19353.9
-362.148
-18991.5
-362.779
-18628.5
-363.394
-18264.8
-363.992
-17900.7
-364.575
-17535.9
-365.141
-17170.6
-365.692
-16804.7
-366.228
-16438.4
-366.749
-16071.5
-367.255
-15704.2
-367.746
-15336.3
-368.223
-14968.1
-368.686
-14599.3
-369.134
-14230.2
-369.569
-13860.6
-369.99
-13490.6
-370.398
-13120.2
-370.793
-12749.4
-371.174
-12378.3
-371.543
-12006.8
-371.899
-11635
-372.243
-11262.8
-372.574
-10890.4
-372.893
-10517.6
-373.2
-10144.5
-373.495
-9771.18
-373.778
-9397.56
-374.05
-9023.68
-374.31
-8649.55
-374.56
-8275.19
-374.798
-7900.6
-375.025
-7525.79
-375.241
-7150.78
-375.447
-6775.58
-375.642
-6400.19
-375.827
-6024.63
-376.002
-5648.91
-376.167
-5273.03
-376.322
-4897.01
-376.467
-4520.85
-376.602
-4144.57
-376.728
-3768.17
-376.844
-3391.67
-376.951
-3015.07
-377.047
-2638.38
-377.135
-2261.62
-377.212
-1884.79
-377.279
-1507.9
-377.336
-1130.97
-377.383
-753.999
-377.419
-377.005
-377.443
-377.456
-1007.41
2031.28
-1986.73
1973.31
-2912.39
1862.01
-3769.17
1719.52
-4553.53
1570.21
-5271.45
1433.81
-5935.01
1322.82
-6558.53
1241.62
-7155.62
1188.58
-7737.42
1158.41
-8312.03
1144.7
-8884.63
1141.5
-9458.17
1144.13
-10034
1149.34
-10612.4
1155.13
-11193.2
1160.4
-11776
1164.66
-12360.2
1167.74
-12945.3
1169.68
-13530.7
1170.57
-14116.1
1170.53
-14701
1169.67
-15285
1168.1
-15868
1165.9
-16449.5
1163.15
-17029.4
1159.89
-17607.4
1156.18
-18183.4
1152.07
-18757
1147.57
-19328.3
1142.72
-19897
1137.55
-20462.9
1132.07
-21025.9
1126.3
-21585.9
1120.26
-22142.7
1113.96
-22696.3
1107.42
-23246.5
1100.63
-23793.1
1093.62
-24336.2
1086.39
-24875.5
1078.95
-25411
1071.3
-25942.6
1063.46
-26470.1
1055.42
-26993.6
1047.2
-27512.8
1038.8
-28027.7
1030.22
-28538.3
1021.47
-29044.4
1012.56
-29546
1003.48
-30043
994.252
-30535.2
984.868
-31022.7
975.336
-31505.4
965.658
-31983.1
955.84
-32455.9
945.885
-32923.6
935.797
-33386.2
925.58
-33843.7
915.237
-34295.9
904.772
-34742.8
894.188
-35184.4
883.489
-35620.6
872.679
-36051.3
861.761
-36476.5
850.739
-36896.1
839.615
-37310.1
828.394
-37718.5
817.078
-38121.1
805.672
-38518.1
794.178
-38909.2
782.601
-39294.5
770.942
-39673.9
759.206
-40047.4
747.397
-40415
735.516
-40776.6
723.568
-41132.2
711.556
-41481.8
699.483
-41825.3
687.353
-42162.7
675.168
-42494
662.931
-42819.2
650.647
-43138.1
638.318
-43450.9
625.947
-43757.5
613.538
-44057.9
601.093
-44352.1
588.616
-44640
576.109
-44921.6
563.577
-45196.9
551.021
-45466
538.444
-45728.7
525.851
-45985.2
513.243
-46235.3
500.624
-46479.2
487.996
-46716.7
475.363
-46947.9
462.726
-47172.8
450.09
-47391.4
437.456
-47603.6
424.828
-47809.6
412.208
-48009.2
399.598
-48202.6
387.002
-48389.6
374.422
-48570.4
361.86
-48744.9
349.32
-48913.2
336.803
-49075.2
324.312
-49231
311.849
-49380.5
299.417
-49523.9
287.018
-49661.1
274.654
-49792.1
262.328
-49917
250.042
-50035.8
237.797
-50148.4
225.596
-50255
213.442
-50355.6
201.335
-50450.1
189.279
-50538.6
177.275
-50621.2
165.324
-50697.7
153.429
-50768.4
141.592
-50833.2
129.814
-50892.2
118.097
-50945.3
106.443
-50992.6
94.8535
-51034.2
83.3296
-51070
71.8731
-51100.2
60.4857
-51124.6
49.1686
-51143.5
37.9232
-51156.8
26.7511
-51164.6
15.6534
-51166.8
4.63143
-51163.6
-6.31357
-51154.9
-17.1804
-51140.8
-27.968
-51121.4
-38.6753
-51096.7
-49.3011
-51066.7
-59.8445
-51031.5
-70.3046
-50991.1
-80.6803
-50945.6
-90.9709
-50895
-101.175
-50839.3
-111.293
-50778.6
-121.323
-50712.9
-131.265
-50642.3
-141.118
-50566.8
-150.882
-50486.5
-160.555
-50401.4
-170.138
-50311.6
-179.629
-50217.1
-189.029
-50117.9
-198.337
-50014.1
-207.552
-49905.8
-216.674
-49793
-225.703
-49675.6
-234.639
-49553.9
-243.48
-49427.8
-252.228
-49297.4
-260.882
-49162.7
-269.441
-49023.8
-277.906
-48880.7
-286.277
-48733.4
-294.552
-48582.1
-302.734
-48426.8
-310.82
-48267.4
-318.812
-48104.1
-326.71
-47936.9
-334.513
-47765.9
-342.222
-47591
-349.837
-47412.4
-357.358
-47230.1
-364.785
-47044.1
-372.118
-46854.6
-379.359
-46661.4
-386.506
-46464.7
-393.56
-46264.6
-400.523
-46061
-407.393
-45854
-414.171
-45643.7
-420.858
-45430.1
-427.455
-45213.3
-433.96
-44993.2
-440.376
-44770
-446.702
-44543.7
-452.94
-44314.3
-459.088
-44081.9
-465.149
-43846.5
-471.122
-43608.2
-477.008
-43366.9
-482.807
-43122.9
-488.521
-42876
-494.149
-42626.3
-499.693
-42373.9
-505.153
-42118.9
-510.529
-41861.2
-515.823
-41600.9
-521.034
-41338
-526.164
-41072.6
-531.214
-40804.8
-536.183
-40534.5
-541.072
-40261.8
-545.883
-39986.7
-550.616
-39709.3
-555.272
-39429.6
-559.851
-39147.7
-564.354
-38863.6
-568.782
-38577.3
-573.135
-38288.9
-577.415
-37998.4
-581.622
-37705.8
-585.757
-37411.2
-589.82
-37114.6
-593.813
-36816
-597.736
-36515.5
-601.589
-36213.1
-605.375
-35908.9
-609.092
-35602.9
-612.743
-35295
-616.328
-34985.5
-619.847
-34674.2
-623.302
-34361.2
-626.693
-34046.5
-630.021
-33730.2
-633.287
-33412.3
-636.491
-33092.9
-639.635
-32771.9
-642.719
-32449.4
-645.743
-32125.5
-648.709
-31800
-651.618
-31473.2
-654.469
-31145
-657.265
-30815.4
-660.004
-30484.4
-662.69
-30152.2
-665.321
-29818.7
-667.899
-29483.9
-670.425
-29147.9
-672.899
-28810.7
-675.321
-28472.2
-677.694
-28132.7
-680.017
-27792
-682.291
-27450.2
-684.517
-27107.3
-686.695
-26763.4
-688.826
-26418.4
-690.912
-26072.4
-692.952
-25725.4
-694.947
-25377.4
-696.898
-25028.5
-698.805
-24678.7
-700.67
-24327.9
-702.492
-23976.3
-704.273
-23623.8
-706.013
-23270.4
-707.713
-22916.3
-709.373
-22561.3
-710.994
-22205.5
-712.576
-21849
-714.121
-21491.7
-715.628
-21133.7
-717.098
-20775
-718.533
-20415.5
-719.931
-20055.4
-721.295
-19694.7
-722.623
-19333.3
-723.918
-18971.2
-725.18
-18608.6
-726.408
-18245.4
-727.604
-17881.5
-728.768
-17517.2
-729.9
-17152.2
-731.001
-16786.8
-732.072
-16420.8
-733.112
-16054.3
-734.123
-15687.4
-735.105
-15319.9
-736.057
-14952
-736.982
-14583.7
-737.878
-14214.9
-738.747
-13845.7
-739.589
-13476.1
-740.404
-13106.1
-741.192
-12735.7
-741.954
-12365
-742.691
-11993.9
-743.402
-11622.5
-744.089
-11250.7
-744.75
-10878.7
-745.387
-10506.3
-746.001
-10133.6
-746.59
-9760.67
-747.156
-9387.45
-747.699
-9013.97
-748.22
-8640.24
-748.718
-8266.28
-749.193
-7892.09
-749.647
-7517.69
-750.08
-7143.08
-750.491
-6768.28
-750.881
-6393.3
-751.251
-6018.14
-751.6
-5642.82
-751.929
-5267.35
-752.238
-4891.73
-752.528
-4515.98
-752.799
-4140.1
-753.05
-3764.11
-753.282
-3388.01
-753.495
-3011.82
-753.688
-2635.54
-753.862
-2259.18
-754.017
-1882.76
-754.152
-1506.28
-754.266
-1129.75
-754.359
-753.189
-754.43
-376.602
-754.479
-754.507
-985.425
3016.58
-1944.99
2932.75
-2855.81
2772.71
-3703.96
2567.57
-4485.69
2351.84
-5205.84
2153.86
-5874.87
1991.76
-6505.55
1872.22
-7110.22
1793.18
-7699.19
1747.3
-8280.07
1725.5
-8857.89
1719.24
-9435.61
1721.77
-10014.7
1728.33
-10595.6
1735.96
-11178.3
1743.03
-11762.5
1748.77
-12347.7
1752.89
-12933.5
1755.41
-13519.5
1756.45
-14105.2
1756.15
-14690.2
1754.69
-15274.4
1752.19
-15857.3
1748.78
-16438.8
1744.55
-17018.6
1739.6
-17596.5
1733.97
-18172.2
1727.75
-18745.7
1720.96
-19316.7
1713.66
-19885.1
1705.87
-20450.7
1697.63
-21013.4
1688.95
-21573.1
1679.88
-22129.6
1670.41
-22682.8
1660.58
-23232.6
1650.39
-23778.9
1639.87
-24321.6
1629.01
-24860.6
1617.84
-25395.7
1606.37
-25926.9
1594.59
-26454
1582.54
-26977.1
1570.2
-27495.9
1557.59
-28010.5
1544.73
-28520.7
1531.6
-29026.4
1518.23
-29527.6
1504.62
-30024.2
1490.77
-30516
1476.7
-31003.1
1462.4
-31485.4
1447.88
-31962.7
1433.15
-32435.1
1418.22
-32902.5
1403.09
-33364.7
1387.77
-33821.7
1372.26
-34273.5
1356.56
-34720.1
1340.69
-35161.3
1324.64
-35597
1308.43
-36027.4
1292.05
-36452.2
1275.52
-36871.4
1258.84
-37285.1
1242.01
-37693
1225.04
-38095.3
1207.93
-38491.9
1190.7
-38882.6
1173.33
-39267.5
1155.85
-39646.6
1138.25
-40019.8
1120.54
-40387
1102.72
-40748.2
1084.81
-41103.5
1066.79
-41452.7
1048.69
-41795.8
1030.5
-42132.9
1012.22
-42463.8
993.873
-42788.7
975.451
-43107.3
956.962
-43419.8
938.411
-43726
919.802
-44026.1
901.14
-44319.9
882.43
-44607.4
863.676
-44888.7
844.882
-45163.8
826.054
-45432.5
807.195
-45695
788.31
-45951.1
769.405
-46201
750.482
-46444.5
731.546
-46681.7
712.602
-46912.6
693.653
-47137.2
674.705
-47355.5
655.761
-47567.5
636.825
-47773.2
617.901
-47972.5
598.993
-48165.6
580.106
-48352.4
561.242
-48532.9
542.406
-48707.2
523.602
-48875.2
504.833
-49037
486.104
-49192.5
467.416
-49341.8
448.775
-49485
430.184
-49621.9
411.645
-49752.8
393.163
-49877.4
374.74
-49996
356.381
-50108.4
338.087
-50214.8
319.862
-50315.2
301.71
-50409.5
283.633
-50497.8
265.634
-50580.2
247.715
-50656.6
229.881
-50727.1
212.132
-50791.7
194.473
-50850.5
176.905
-50903.4
159.432
-50950.6
142.055
-50992
124.776
-51027.7
107.599
-51057.7
90.5258
-51082.1
73.5578
-51100.8
56.6976
-51114
39.947
-51121.6
23.3082
-51123.7
6.78296
-51120.4
-9.62683
-51111.6
-25.9194
-51097.4
-42.0931
-51077.9
-58.1462
-51053.1
-74.0772
-51023.1
-89.8846
-50987.8
-105.567
-50947.3
-121.123
-50901.7
-136.551
-50851
-151.85
-50795.3
-167.019
-50734.5
-182.057
-50668.8
-196.962
-50598.1
-211.734
-50522.6
-226.371
-50442.3
-240.874
-50357.2
-255.24
-50267.3
-269.469
-50172.8
-283.561
-50073.6
-297.515
-49969.8
-311.33
-49861.5
-325.006
-49748.6
-338.542
-49631.3
-351.938
-49509.6
-365.193
-49383.5
-378.307
-49253.1
-391.28
-49118.4
-404.112
-48979.5
-416.802
-48836.5
-429.35
-48689.3
-441.757
-48538
-454.022
-48382.7
-466.144
-48223.4
-478.125
-48060.1
-489.964
-47893
-501.662
-47722
-513.218
-47547.3
-524.634
-47368.7
-535.908
-47186.5
-547.042
-47000.6
-558.035
-46811.1
-568.888
-46618.1
-579.603
-46421.5
-590.178
-46221.4
-600.614
-46018
-610.913
-45811.1
-621.074
-45600.9
-631.098
-45387.5
-640.986
-45170.7
-650.738
-44950.8
-660.355
-44727.7
-669.838
-44501.6
-679.187
-44272.3
-688.404
-44040
-697.488
-43804.8
-706.442
-43566.6
-715.265
-43325.6
-723.958
-43081.6
-732.523
-42834.9
-740.959
-42585.4
-749.269
-42333.2
-757.453
-42078.4
-765.512
-41820.8
-773.446
-41560.7
-781.258
-41298.1
-788.947
-41032.9
-796.515
-40765.2
-803.964
-40495.1
-811.293
-40222.6
-818.504
-39947.8
-825.598
-39670.6
-832.576
-39391.1
-839.439
-39109.4
-846.188
-38825.5
-852.825
-38539.5
-859.35
-38251.3
-865.765
-37961
-872.071
-37668.6
-878.268
-37374.3
-884.358
-37077.9
-890.342
-36779.6
-896.222
-36479.4
-901.998
-36177.2
-907.671
-35873.3
-913.243
-35567.5
-918.715
-35259.9
-924.087
-34950.6
-929.362
-34639.6
-934.54
-34326.8
-939.622
-34012.5
-944.61
-33696.5
-949.505
-33378.9
-954.307
-33059.7
-959.019
-32739
-963.64
-32416.8
-968.173
-32093.1
-972.619
-31768
-976.977
-31441.4
-981.251
-31113.5
-985.44
-30784.2
-989.546
-30453.6
-993.571
-30121.7
-997.514
-29788.4
-1001.38
-29454
-1005.16
-29118.3
-1008.87
-28781.3
-1012.5
-28443.3
-1016.06
-28104
-1019.54
-27763.6
-1022.95
-27422.2
-1026.28
-27079.6
-1029.55
-26736
-1032.74
-26391.3
-1035.87
-26045.7
-1038.92
-25699
-1041.91
-25351.4
-1044.84
-25002.8
-1047.69
-24653.3
-1050.49
-24302.9
-1053.22
-23951.6
-1055.89
-23599.4
-1058.5
-23246.4
-1061.04
-22892.6
-1063.53
-22538
-1065.96
-22182.6
-1068.33
-21826.4
-1070.64
-21469.5
-1072.9
-21111.8
-1075.11
-20753.4
-1077.26
-20394.4
-1079.35
-20034.6
-1081.39
-19674.2
-1083.39
-19313.2
-1085.33
-18951.5
-1087.22
-18589.2
-1089.06
-18226.4
-1090.85
-17862.9
-1092.59
-17498.9
-1094.29
-17134.4
-1095.94
-16769.3
-1097.54
-16403.7
-1099.1
-16037.6
-1100.62
-15671
-1102.09
-15303.9
-1103.52
-14936.4
-1104.9
-14568.4
-1106.24
-14200
-1107.55
-13831.2
-1108.81
-13462
-1110.03
-13092.4
-1111.21
-12722.4
-1112.35
-12352.1
-1113.46
-11981.4
-1114.52
-11610.3
-1115.55
-11238.9
-1116.54
-10867.3
-1117.5
-10495.3
-1118.41
-10123
-1119.3
-9750.42
-1120.15
-9377.58
-1120.96
-9004.49
-1121.74
-8631.16
-1122.49
-8257.59
-1123.2
-7883.79
-1123.88
-7509.78
-1124.53
-7135.57
-1125.14
-6761.16
-1125.73
-6386.57
-1126.28
-6011.81
-1126.8
-5636.88
-1127.3
-5261.8
-1127.76
-4886.58
-1128.19
-4511.22
-1128.6
-4135.74
-1128.98
-3760.15
-1129.32
-3384.44
-1129.64
-3008.65
-1129.93
-2632.76
-1130.19
-2256.8
-1130.43
-1880.78
-1130.63
-1504.69
-1130.8
-1128.56
-1130.94
-752.394
-1131.05
-376.203
-1131.12
-1131.16
-956.278
3972.73
-1889.83
3866.18
-2781.1
3663.87
-3617.85
3404.21
-4396.11
3130
-5119.27
2876.93
-5795.73
2668.13
-6436.16
2512.56
-7051.22
2408.16
-7650.06
2346.06
-8239.64
2315.01
-8824.76
2304.29
-9408.38
2305.31
-9992.11
2311.98
-10576.7
2320.43
-11162.2
2328.46
-11748.5
2335.01
-12335.3
2339.67
-12922.4
2342.39
-13509.3
2343.27
-14095.7
2342.49
-14681.3
2340.23
-15265.8
2336.65
-15849
2331.91
-16430.7
2326.12
-17010.5
2319.38
-17588.4
2311.79
-18164.1
2303.4
-18737.5
2294.28
-19308.4
2284.48
-19876.6
2274.04
-20442.1
2263.01
-21004.6
2251.41
-21564.1
2239.28
-22120.4
2226.63
-22673.3
2213.5
-23222.9
2199.89
-23768.9
2185.84
-24311.3
2171.35
-24850
2156.45
-25384.8
2141.13
-25915.7
2125.43
-26442.6
2109.34
-26965.3
2092.89
-27483.8
2076.07
-27998.1
2058.91
-28507.9
2041.41
-29013.3
2023.57
-29514.2
2005.42
-30010.4
1986.95
-30501.9
1968.18
-30988.7
1949.12
-31470.6
1929.76
-31947.6
1910.12
-32419.7
1890.22
-32886.6
1870.04
-33348.5
1849.61
-33805.2
1828.92
-34256.7
1808
-34702.9
1786.83
-35143.7
1765.44
-35579.1
1743.82
-36009.1
1721.99
-36433.6
1699.95
-36852.5
1677.71
-37265.7
1655.28
-37673.4
1632.65
-38075.3
1609.85
-38471.5
1586.87
-38861.9
1563.72
-39246.5
1540.41
-39625.2
1516.95
-39998
1493.34
-40364.9
1469.59
-40725.8
1445.7
-41080.7
1421.68
-41429.6
1397.55
-41772.4
1373.3
-42109.1
1348.94
-42439.7
1324.48
-42764.2
1299.92
-43082.5
1275.27
-43394.6
1250.54
-43700.6
1225.74
-44000.3
1200.86
-44293.8
1175.92
-44581
1150.92
-44862
1125.87
-45136.7
1100.77
-45405.1
1075.63
-45667.3
1050.45
-45923.1
1025.25
-46172.6
1000.03
-46415.9
974.788
-46652.8
949.536
-46883.4
924.278
-47107.7
899.021
-47325.7
873.768
-47537.4
848.527
-47742.7
823.303
-47941.8
798.1
-48134.6
772.924
-48321.1
747.78
-48501.4
722.674
-48675.4
697.609
-48843.1
672.592
-49004.6
647.627
-49159.9
622.719
-49308.9
597.872
-49451.8
573.091
-49588.5
548.382
-49719.1
523.747
-49843.5
499.192
-49961.8
474.721
-50074
450.338
-50180.2
426.047
-50280.3
401.853
-50374.4
377.759
-50462.5
353.769
-50544.6
329.887
-50620.8
306.116
-50691.1
282.461
-50755.5
258.925
-50814.1
235.51
-50866.9
212.221
-50913.8
189.061
-50955.1
166.033
-50990.6
143.14
-51020.4
120.385
-51044.6
97.7702
-51063.1
75.2995
-51076.1
52.9751
-51083.6
30.7997
-51085.6
8.77575
-51082.1
-13.0942
-51073.1
-34.8078
-51058.8
-56.3629
-51039.2
-77.7572
-51014.3
-98.9886
-50984.1
-120.055
-50948.6
-140.955
-50908
-161.686
-50862.3
-182.247
-50811.5
-202.636
-50755.7
-222.851
-50694.8
-242.891
-50629
-262.755
-50558.3
-282.441
-50482.7
-301.948
-50402.2
-321.274
-50317
-340.419
-50227.1
-359.382
-50132.5
-378.161
-50033.2
-396.756
-49929.4
-415.166
-49821
-433.391
-49708.1
-451.429
-49590.8
-469.28
-49469
-486.943
-49342.9
-504.419
-49212.5
-521.707
-49077.8
-538.806
-48938.9
-555.716
-48795.8
-572.437
-48648.6
-588.969
-48497.3
-605.312
-48342
-621.466
-48182.7
-637.431
-48019.5
-653.207
-47852.4
-668.794
-47681.4
-684.193
-47506.7
-699.404
-47328.2
-714.427
-47146
-729.262
-46960.1
-743.91
-46770.7
-758.372
-46577.7
-772.648
-46381.1
-786.739
-46181.2
-800.645
-45977.7
-814.367
-45771
-827.906
-45560.8
-841.263
-45347.4
-854.438
-45130.8
-867.431
-44911
-880.246
-44688
-892.881
-44461.9
-905.338
-44232.8
-917.618
-44000.6
-929.722
-43765.5
-941.651
-43527.4
-953.406
-43286.5
-964.989
-43042.7
-976.4
-42796.1
-987.64
-42546.7
-998.712
-42294.7
-1009.62
-42039.9
-1020.35
-41782.6
-1030.92
-41522.6
-1041.33
-41260.1
-1051.58
-40995
-1061.66
-40727.5
-1071.58
-40457.6
-1081.35
-40185.3
-1090.95
-39910.6
-1100.4
-39633.6
-1109.7
-39354.4
-1118.84
-39072.8
-1127.84
-38789.1
-1136.68
-38503.3
-1145.37
-38215.3
-1153.92
-37925.2
-1162.32
-37633
-1170.57
-37338.9
-1178.69
-37042.7
-1186.66
-36744.6
-1194.49
-36444.6
-1202.19
-36142.7
-1209.74
-35839
-1217.17
-35533.4
-1224.46
-35226.1
-1231.61
-34917
-1238.64
-34606.2
-1245.54
-34293.7
-1252.31
-33979.6
-1258.95
-33663.8
-1265.47
-33346.5
-1271.87
-33027.6
-1278.15
-32707.1
-1284.3
-32385.2
-1290.34
-32061.8
-1296.26
-31736.9
-1302.07
-31410.7
-1307.76
-31083
-1313.34
-30754
-1318.81
-30423.7
-1324.17
-30092
-1329.42
-29759.1
-1334.57
-29424.9
-1339.61
-29089.5
-1344.55
-28752.9
-1349.39
-28415.1
-1354.12
-28076.1
-1358.76
-27736
-1363.3
-27394.9
-1367.74
-27052.6
-1372.09
-26709.3
-1376.34
-26365
-1380.51
-26019.6
-1384.58
-25673.3
-1388.56
-25326
-1392.45
-24977.7
-1396.26
-24628.5
-1399.98
-24278.4
-1403.62
-23927.5
-1407.18
-23575.6
-1410.65
-23223
-1414.04
-22869.5
-1417.35
-22515.2
-1420.59
-22160.1
-1423.75
-21804.3
-1426.83
-21447.7
-1429.84
-21090.4
-1432.77
-20732.3
-1435.63
-20373.6
-1438.43
-20014.2
-1441.15
-19654.2
-1443.8
-19293.5
-1446.38
-18932.2
-1448.9
-18570.2
-1451.35
-18207.7
-1453.74
-17844.6
-1456.06
-17481
-1458.32
-17116.8
-1460.52
-16752.1
-1462.65
-16386.8
-1464.73
-16021.1
-1466.75
-15654.9
-1468.71
-15288.2
-1470.61
-14921
-1472.45
-14553.4
-1474.24
-14185.4
-1475.97
-13817
-1477.65
-13448.1
-1479.28
-13078.9
-1480.85
-12709.3
-1482.37
-12339.3
-1483.84
-11969
-1485.26
-11598.3
-1486.63
-11227.3
-1487.95
-10856
-1489.22
-10484.4
-1490.45
-10112.5
-1491.62
-9740.31
-1492.75
-9367.86
-1493.84
-8995.15
-1494.87
-8622.2
-1495.87
-8249.01
-1496.82
-7875.6
-1497.72
-7501.98
-1498.59
-7128.15
-1499.41
-6754.13
-1500.18
-6379.93
-1500.92
-6005.55
-1501.62
-5631.02
-1502.28
-5256.33
-1502.89
-4881.49
-1503.47
-4506.53
-1504.01
-4131.44
-1504.51
-3756.23
-1504.97
-3380.92
-1505.4
-3005.51
-1505.79
-2630.02
-1506.13
-2254.45
-1506.44
-1878.82
-1506.71
-1503.13
-1506.94
-1127.39
-1507.13
-751.613
-1507.27
-375.815
-1507.37
-1507.42
-929.701
4902.3
-1839.39
4775.74
-2712.4
4536.77
-3538
4229.69
-4312.16
3904.06
-5037.15
3601.83
-5719.63
3350.52
-6368.46
3161.32
-6992.8
3032.42
-7600.7
2953.88
-8198.49
2912.72
-8790.67
2896.39
-9380.16
2894.72
-9968.65
2900.39
-10557
2908.7
-11145.5
2916.91
-11734.2
2923.65
-12323
2928.34
-12911.5
2930.84
-13499.6
2931.25
-14086.9
2929.73
-14673.2
2926.47
-15258.3
2921.67
-15841.9
2915.46
-16423.8
2908
-17003.9
2899.39
-17581.9
2889.74
-18157.7
2879.13
-18731.2
2867.62
-19302
2855.29
-19870.2
2842.17
-20435.6
2828.31
-20998
2813.76
-21557.3
2798.54
-22113.5
2782.7
-22666.3
2766.24
-23215.7
2749.21
-23761.5
2731.61
-24303.7
2713.48
-24842.1
2694.83
-25376.7
2675.67
-25907.3
2656.02
-26434
2635.9
-26956.4
2615.32
-27474.7
2594.29
-27988.7
2572.82
-28498.2
2550.94
-29003.4
2528.64
-29503.9
2505.94
-29999.9
2482.85
-30491.1
2459.38
-30977.6
2435.54
-31459.2
2411.34
-31935.9
2386.8
-32407.6
2361.91
-32874.3
2336.69
-33335.9
2311.14
-33792.3
2285.29
-34243.5
2259.13
-34689.3
2232.67
-35129.8
2205.93
-35565
2178.91
-35994.6
2151.62
-36418.8
2124.07
-36837.3
2096.27
-37250.3
2068.23
-37657.6
2039.95
-38059.2
2011.44
-38455.1
1982.72
-38845.2
1953.79
-39229.5
1924.65
-39607.9
1895.33
-39980.4
1865.82
-40346.9
1836.13
-40707.5
1806.28
-41062.1
1776.26
-41410.7
1746.09
-41753.1
1715.78
-42089.6
1685.34
-42419.8
1654.77
-42744
1624.07
-43062
1593.27
-43373.8
1562.36
-43679.4
1531.36
-43978.9
1500.27
-44272
1469.1
-44559
1437.85
-44839.6
1406.54
-45114
1375.17
-45382.2
1343.76
-45644
1312.3
-45899.5
1280.8
-46148.8
1249.28
-46391.7
1217.73
-46628.3
1186.17
-46858.6
1154.61
-47082.6
1123.04
-47300.3
1091.49
-47511.7
1059.94
-47716.8
1028.42
-47915.6
996.922
-48108.1
965.46
-48294.4
934.038
-48474.3
902.663
-48648
871.341
-48815.5
840.078
-48976.7
808.88
-49131.7
777.753
-49280.5
746.704
-49423.2
715.737
-49559.6
684.859
-49689.9
654.075
-49814.1
623.39
-49932.1
592.811
-50044.1
562.342
-50150
531.988
-50249.9
501.755
-50343.7
471.647
-50431.6
441.669
-50513.5
411.827
-50589.5
382.124
-50659.6
352.565
-50723.8
323.155
-50782.1
293.897
-50834.7
264.797
-50881.4
235.857
-50922.4
207.083
-50957.7
178.477
-50987.4
150.044
-51011.3
121.787
-51029.7
93.7098
-51042.5
65.8155
-51049.8
38.1075
-51051.6
10.5889
-51047.9
-16.7371
-51038.8
-43.8677
-51024.3
-70.8
-51004.5
-97.5313
-50979.4
-124.059
-50949.1
-150.38
-50913.5
-176.494
-50872.8
-202.396
-50826.9
-228.085
-50776
-253.559
-50720
-278.816
-50659
-303.855
-50593.1
-328.672
-50522.2
-353.267
-50446.5
-377.639
-50366
-401.785
-50280.7
-425.704
-50190.6
-449.395
-50095.9
-472.857
-49996.6
-496.089
-49892.6
-519.089
-49784.2
-541.857
-49671.2
-564.393
-49553.8
-586.694
-49432
-608.762
-49305.8
-630.594
-49175.3
-652.192
-49040.5
-673.553
-48901.6
-694.679
-48758.5
-715.568
-48611.2
-736.221
-48459.9
-756.638
-48304.6
-776.818
-48145.2
-796.762
-47982
-816.47
-47814.9
-835.942
-47643.9
-855.178
-47469.1
-874.18
-47290.7
-892.946
-47108.5
-911.479
-46922.6
-929.777
-46733.2
-947.843
-46540.2
-965.676
-46343.7
-983.278
-46143.7
-1000.65
-45940.4
-1017.79
-45733.6
-1034.7
-45523.5
-1051.39
-45310.2
-1067.84
-45093.6
-1084.07
-44873.8
-1100.08
-44650.9
-1115.86
-44424.9
-1131.42
-44195.8
-1146.76
-43963.7
-1161.88
-43728.7
-1176.78
-43490.7
-1191.46
-43249.8
-1205.93
-43006.2
-1220.18
-42759.7
-1234.22
-42510.4
-1248.05
-42258.5
-1261.67
-42003.8
-1275.08
-41746.6
-1288.29
-41486.7
-1301.28
-41224.3
-1314.08
-40959.4
-1326.67
-40692.1
-1339.07
-40422.3
-1351.26
-40150.1
-1363.26
-39875.5
-1375.07
-39598.7
-1386.68
-39319.6
-1398.1
-39038.2
-1409.33
-38754.7
-1420.37
-38469
-1431.23
-38181.2
-1441.9
-37891.2
-1452.39
-37599.3
-1462.7
-37305.3
-1472.83
-37009.3
-1482.79
-36711.4
-1492.57
-36411.6
-1502.18
-36109.9
-1511.62
-35806.4
-1520.89
-35501
-1529.99
-35193.9
-1538.93
-34885
-1547.71
-34574.4
-1556.32
-34262.2
-1564.77
-33948.3
-1573.07
-33632.7
-1581.21
-33315.6
-1589.2
-32996.9
-1597.04
-32676.7
-1604.73
-32355
-1612.27
-32031.9
-1619.66
-31707.3
-1626.91
-31381.2
-1634.02
-31053.8
-1640.99
-30725.1
-1647.82
-30395
-1654.51
-30063.6
-1661.07
-29730.9
-1667.5
-29397
-1673.79
-29061.9
-1679.96
-28725.5
-1686
-28388
-1691.91
-28049.3
-1697.7
-27709.5
-1703.37
-27368.7
-1708.92
-27026.7
-1714.35
-26683.7
-1719.66
-26339.6
-1724.86
-25994.5
-1729.94
-25648.5
-1734.91
-25301.5
-1739.77
-24953.5
-1744.53
-24604.7
-1749.18
-24254.9
-1753.72
-23904.2
-1758.15
-23552.7
-1762.49
-23200.4
-1766.73
-22847.2
-1770.86
-22493.2
-1774.9
-22138.4
-1778.84
-21782.9
-1782.69
-21426.7
-1786.45
-21069.7
-1790.11
-20712
-1793.69
-20353.6
-1797.17
-19994.5
-1800.57
-19634.8
-1803.88
-19274.4
-1807.1
-18913.5
-1810.25
-18551.9
-1813.31
-18189.7
-1816.29
-17827
-1819.19
-17463.7
-1822.01
-17099.8
-1824.75
-16735.4
-1827.42
-16370.5
-1830.01
-16005.1
-1832.53
-15639.3
-1834.97
-15272.9
-1837.35
-14906.1
-1839.65
-14538.9
-1841.88
-14171.2
-1844.05
-13803.1
-1846.14
-13434.6
-1848.17
-13065.8
-1850.14
-12696.5
-1852.03
-12326.9
-1853.87
-11956.9
-1855.64
-11586.6
-1857.35
-11216
-1859
-10845.1
-1860.59
-10473.8
-1862.11
-10102.3
-1863.58
-9730.49
-1864.99
-9358.42
-1866.34
-8986.08
-1867.64
-8613.5
-1868.88
-8240.69
-1870.06
-7867.65
-1871.19
-7494.4
-1872.27
-7120.95
-1873.29
-6747.3
-1874.27
-6373.48
-1875.19
-5999.48
-1876.06
-5625.32
-1876.88
-5251.01
-1877.65
-4876.55
-1878.37
-4501.96
-1879.04
-4127.25
-1879.67
-3752.43
-1880.25
-3377.5
-1880.78
-3002.47
-1881.26
-2627.36
-1881.69
-2252.17
-1882.08
-1876.91
-1882.41
-1501.6
-1882.7
-1126.24
-1882.93
-750.85
-1883.11
-375.431
-1883.24
-1883.3
-903.347
5805.52
-1789.4
5661.67
-2644.13
5391.38
-3458.17
5043.63
-4227.59
4673.38
-4953.67
4327.81
-5641.48
4038.25
-6298.24
3817.99
-6931.6
3665.71
-7548.55
3570.74
-8154.72
3518.81
-8754.27
3495.87
-9350.02
3490.4
-9943.71
3494
-10536.3
3501.22
-11128.3
3508.81
-11719.8
3515.07
-12310.8
3519.24
-12901.1
3521.11
-13490.6
3520.69
-14079.1
3518.15
-14666.4
3513.68
-15252.2
3507.45
-15836.5
3499.63
-16418.9
3490.37
-16999.4
3479.8
-17577.7
3468.01
-18153.8
3455.1
-18727.4
3441.15
-19298.4
3426.22
-19866.6
3410.37
-20432
3393.65
-20994.4
3376.11
-21553.8
3357.79
-22109.8
3338.71
-22662.6
3318.92
-23211.8
3298.43
-23757.6
3277.28
-24299.6
3255.49
-24837.9
3233.07
-25372.4
3210.05
-25902.9
3186.45
-26429.3
3162.28
-26951.6
3137.57
-27469.7
3112.32
-27983.5
3086.54
-28492.9
3060.27
-28997.8
3033.49
-29498.1
3006.24
-29993.8
2978.53
-30484.9
2950.36
-30971.1
2921.74
-31452.5
2892.7
-31929
2863.23
-32400.5
2833.36
-32866.9
2803.09
-33328.2
2772.43
-33784.4
2741.4
-34235.3
2710
-34680.9
2678.25
-35121.1
2646.16
-35556
2613.73
-35985.4
2580.98
-36409.3
2547.92
-36827.6
2514.56
-37240.3
2480.91
-37647.3
2446.97
-38048.7
2412.76
-38444.3
2378.3
-38834.1
2343.58
-39218.1
2308.62
-39596.2
2273.43
-39968.4
2238.01
-40334.7
2202.39
-40695
2166.57
-41049.3
2130.55
-41397.5
2094.35
-41739.7
2057.98
-42075.9
2021.45
-42405.9
1984.77
-42729.7
1947.94
-43047.4
1910.98
-43359
1873.89
-43664.3
1836.69
-43963.4
1799.38
-44256.3
1761.98
-44542.9
1724.49
-44823.3