/*--------------------------------*- C++ -*----------------------------------*\
| =========                 |                                                 |
| \\      /  F ield         | OpenFOAM: The Open Source CFD Toolbox           |
|  \\    /   O peration     | Version:  2212                                  |
|   \\  /    A nd           | Website:  www.openfoam.com                      |
|    \\/     M anipulation  |                                                 |
\*---------------------------------------------------------------------------*/
FoamFile
{
    version     2.0;
    format      ascii;
    arch        "LSB;label=32;scalar=64";
    class       volScalarField;
    location    "760";
    object      p_rgh_0;
}
// * * * * * * * * * * * * * * * * * * * * * * * * * * * * * * * * * * * * * //

dimensions      [1 -1 -2 0 0 0 0];

internalField   nonuniform List<scalar> 
204800
(
50.5188
50.5168
50.5118
50.5039
50.4935
50.4802
50.4638
50.4441
50.4214
50.3956
50.3669
50.3354
50.3011
50.2643
50.2249
50.183
50.1385
50.0916
50.0422
49.9904
49.9362
49.8796
49.8208
49.7596
49.6963
49.6307
49.563
49.4931
49.4211
49.347
49.2709
49.1928
49.1127
49.0307
48.9468
48.861
48.7734
48.684
48.5929
48.5001
48.4056
48.3096
48.212
48.1128
48.0122
47.9102
47.8068
47.7021
47.596
47.4888
47.3803
47.2707
47.16
47.0482
46.9354
46.8217
46.707
46.5915
46.4752
46.3581
46.2402
46.1217
46.0026
45.8829
45.7626
45.6418
45.5206
45.399
45.277
45.1548
45.0322
44.9095
44.7866
44.6635
44.5404
44.4172
44.294
44.1708
44.0478
43.9248
43.802
43.6795
43.5571
43.4351
43.3133
43.192
43.071
42.9505
42.8304
42.7108
42.5918
42.4733
42.3555
42.2382
42.1217
42.0058
41.8907
41.7764
41.6628
41.55
41.4381
41.3271
41.217
41.1077
40.9995
40.8921
40.7858
40.6805
40.5762
40.473
40.3709
40.2698
40.1698
40.071
39.9733
39.8768
39.7814
39.6873
39.5943
39.5026
39.412
39.3228
39.2347
39.1479
39.0624
38.9782
38.8952
38.8136
38.7332
38.6541
38.5764
38.4999
38.4248
38.3509
38.2784
38.2072
38.1374
38.0688
38.0016
37.9357
37.8711
37.8078
37.7459
37.6852
37.6259
37.5679
37.5111
37.4557
37.4016
37.3487
37.2971
37.2468
37.1978
37.15
37.1035
37.0582
37.0141
36.9713
36.9297
36.8893
36.85
36.812
36.7752
36.7395
36.7049
36.6715
36.6392
36.6081
36.578
36.5491
36.5212
36.4944
36.4687
36.444
36.4203
36.3976
36.376
36.3553
36.3356
36.3168
36.2991
36.2822
36.2662
36.2512
36.237
36.2238
36.2113
36.1998
36.189
36.1791
36.17
36.1616
36.154
36.1472
36.1411
36.1358
36.1311
36.1272
36.1239
36.1213
36.1194
36.1181
36.1174
36.1173
36.1178
36.1189
36.1205
36.1227
36.1255
36.1287
36.1325
36.1367
36.1415
36.1467
36.1523
36.1584
36.1649
36.1718
36.1791
36.1868
36.1948
36.2033
36.212
36.2211
36.2305
36.2402
36.2502
36.2604
36.271
36.2817
36.2928
36.304
36.3155
36.3272
36.339
36.3511
36.3633
36.3757
36.3882
36.4009
36.4137
36.4266
36.4396
36.4527
36.4659
36.4791
36.4924
36.5058
36.5192
36.5327
36.5462
36.5597
36.5732
36.5867
36.6002
36.6136
36.6271
36.6405
36.6538
36.6671
36.6804
36.6935
36.7066
36.7196
36.7326
36.7454
36.7581
36.7707
36.7832
36.7955
36.8077
36.8198
36.8317
36.8435
36.8551
36.8665
36.8778
36.8889
36.8998
36.9105
36.9211
36.9314
36.9415
36.9515
36.9612
36.9707
36.9799
36.989
36.9978
37.0064
37.0147
37.0228
37.0307
37.0383
37.0456
37.0527
37.0595
37.0661
37.0724
37.0785
37.0842
37.0897
37.0949
37.0999
37.1045
37.1089
37.113
37.1168
37.1204
37.1236
37.1266
37.1292
37.1316
37.1336
37.1354
37.1369
37.1381
37.139
37.1396
37.1399
50.4397
50.436
50.4288
50.4185
50.4054
50.3895
50.3708
50.3494
50.3253
50.2986
50.2692
50.2373
50.2029
50.1659
50.1264
50.0845
50.04
49.9931
49.9438
49.892
49.8379
49.7814
49.7227
49.6616
49.5984
49.5329
49.4653
49.3955
49.3236
49.2497
49.1737
49.0957
49.0158
48.9339
48.8501
48.7645
48.677
48.5878
48.4969
48.4042
48.3099
48.2141
48.1166
48.0177
47.9172
47.8154
47.7122
47.6076
47.5018
47.3947
47.2864
47.177
47.0665
46.9549
46.8424
46.7288
46.6144
46.4991
46.383
46.2661
46.1484
46.0301
45.9112
45.7917
45.6716
45.5511
45.4301
45.3087
45.187
45.0649
44.9426
44.8201
44.6974
44.5745
44.4516
44.3287
44.2057
44.0828
43.9599
43.8372
43.7147
43.5923
43.4702
43.3484
43.2269
43.1057
42.985
42.8646
42.7448
42.6254
42.5066
42.3884
42.2708
42.1538
42.0374
41.9218
41.8069
41.6927
41.5794
41.4668
41.3551
41.2443
41.1344
41.0254
40.9173
40.8102
40.7041
40.5989
40.4949
40.3918
40.2899
40.189
40.0892
39.9906
39.8931
39.7968
39.7016
39.6076
39.5148
39.4232
39.3329
39.2438
39.1559
39.0693
38.9839
38.8999
38.8171
38.7356
38.6554
38.5764
38.4988
38.4225
38.3475
38.2738
38.2015
38.1304
38.0607
37.9923
37.9252
37.8594
37.7949
37.7318
37.67
37.6094
37.5502
37.4923
37.4357
37.3804
37.3264
37.2736
37.2221
37.1719
37.123
37.0753
37.0289
36.9837
36.9397
36.897
36.8554
36.8151
36.776
36.738
36.7013
36.6656
36.6312
36.5978
36.5656
36.5346
36.5046
36.4757
36.4479
36.4211
36.3954
36.3708
36.3472
36.3246
36.3029
36.2823
36.2627
36.244
36.2262
36.2094
36.1935
36.1785
36.1644
36.1511
36.1387
36.1272
36.1165
36.1066
36.0975
36.0891
36.0816
36.0748
36.0687
36.0634
36.0588
36.0548
36.0516
36.049
36.0471
36.0458
36.0451
36.045
36.0455
36.0466
36.0483
36.0505
36.0532
36.0565
36.0602
36.0645
36.0692
36.0744
36.0801
36.0861
36.0926
36.0995
36.1068
36.1145
36.1226
36.131
36.1397
36.1488
36.1581
36.1678
36.1778
36.1881
36.1986
36.2093
36.2204
36.2316
36.243
36.2547
36.2666
36.2786
36.2908
36.3032
36.3157
36.3283
36.3411
36.354
36.3669
36.38
36.3932
36.4064
36.4197
36.4331
36.4465
36.4599
36.4734
36.4869
36.5003
36.5138
36.5273
36.5407
36.5541
36.5675
36.5809
36.5941
36.6074
36.6205
36.6336
36.6466
36.6595
36.6723
36.685
36.6975
36.71
36.7223
36.7345
36.7466
36.7585
36.7702
36.7818
36.7932
36.8045
36.8156
36.8265
36.8372
36.8477
36.858
36.8681
36.878
36.8877
36.8972
36.9064
36.9155
36.9243
36.9328
36.9412
36.9492
36.9571
36.9647
36.972
36.9791
36.9859
36.9925
36.9988
37.0048
37.0106
37.016
37.0213
37.0262
37.0308
37.0352
37.0393
37.0431
37.0466
37.0499
37.0528
37.0555
37.0578
37.0599
37.0617
37.0632
37.0643
37.0652
37.0658
37.0661
50.4222
50.4185
50.4114
50.4013
50.3882
50.3723
50.3537
50.3322
50.3081
50.2813
50.252
50.22
50.1855
50.1485
50.109
50.067
50.0225
49.9755
49.9262
49.8744
49.8202
49.7638
49.705
49.6439
49.5806
49.5151
49.4475
49.3777
49.3058
49.2319
49.1559
49.0779
48.9979
48.916
48.8322
48.7466
48.6591
48.5699
48.4789
48.3863
48.292
48.1961
48.0987
47.9997
47.8993
47.7974
47.6942
47.5897
47.4838
47.3767
47.2685
47.159
47.0485
46.937
46.8244
46.7108
46.5964
46.4811
46.365
46.2481
46.1304
46.0121
45.8932
45.7737
45.6536
45.5331
45.4121
45.2907
45.169
45.047
44.9246
44.8021
44.6794
44.5566
44.4337
44.3107
44.1878
44.0648
43.942
43.8193
43.6967
43.5744
43.4523
43.3305
43.209
43.0879
42.9671
42.8468
42.727
42.6076
42.4888
42.3706
42.253
42.136
42.0197
41.904
41.7892
41.675
41.5617
41.4492
41.3375
41.2267
41.1167
41.0077
40.8997
40.7926
40.6865
40.5814
40.4773
40.3743
40.2724
40.1715
40.0718
39.9732
39.8757
39.7794
39.6842
39.5902
39.4975
39.4059
39.3156
39.2265
39.1387
39.0521
38.9667
38.8827
38.7999
38.7184
38.6382
38.5593
38.4818
38.4055
38.3305
38.2568
38.1845
38.1135
38.0438
37.9754
37.9083
37.8425
37.7781
37.715
37.6532
37.5927
37.5335
37.4756
37.419
37.3637
37.3097
37.257
37.2055
37.1554
37.1064
37.0588
37.0124
36.9672
36.9233
36.8805
36.839
36.7987
36.7596
36.7217
36.6849
36.6493
36.6149
36.5816
36.5494
36.5183
36.4884
36.4595
36.4317
36.405
36.3793
36.3547
36.3311
36.3085
36.2869
36.2663
36.2467
36.228
36.2103
36.1935
36.1776
36.1626
36.1485
36.1353
36.1229
36.1114
36.1007
36.0908
36.0817
36.0734
36.0659
36.0591
36.053
36.0477
36.0431
36.0392
36.036
36.0334
36.0315
36.0302
36.0295
36.0295
36.03
36.0311
36.0328
36.035
36.0377
36.041
36.0448
36.049
36.0538
36.059
36.0646
36.0707
36.0772
36.0842
36.0915
36.0992
36.1072
36.1156
36.1244
36.1335
36.1428
36.1525
36.1625
36.1728
36.1833
36.1941
36.2051
36.2164
36.2278
36.2395
36.2513
36.2634
36.2756
36.288
36.3005
36.3131
36.3259
36.3388
36.3518
36.3649
36.3781
36.3913
36.4046
36.418
36.4314
36.4448
36.4583
36.4718
36.4852
36.4987
36.5122
36.5257
36.5391
36.5525
36.5658
36.5791
36.5923
36.6055
36.6185
36.6315
36.6444
36.6572
36.6699
36.6825
36.695
36.7073
36.7195
36.7315
36.7435
36.7552
36.7668
36.7782
36.7895
36.8006
36.8115
36.8222
36.8327
36.843
36.8531
36.863
36.8727
36.8822
36.8915
36.9005
36.9093
36.9179
36.9262
36.9343
36.9421
36.9497
36.957
36.9641
36.9709
36.9775
36.9838
36.9898
36.9956
37.0011
37.0063
37.0112
37.0159
37.0203
37.0244
37.0282
37.0317
37.0349
37.0379
37.0405
37.0429
37.0449
37.0467
37.0482
37.0494
37.0503
37.0509
37.0512
50.3492
50.3453
50.3375
50.3264
50.3122
50.2951
50.2752
50.2528
50.2278
50.2004
50.1705
50.1381
50.1033
50.0661
50.0264
49.9843
49.9397
49.8927
49.8433
49.7915
49.7373
49.6809
49.6221
49.5611
49.4978
49.4324
49.3648
49.2951
49.2232
49.1494
49.0734
48.9955
48.9156
48.8338
48.7501
48.6645
48.5772
48.488
48.3972
48.3046
48.2104
48.1146
48.0173
47.9184
47.8181
47.7164
47.6133
47.5088
47.4031
47.2961
47.188
47.0787
46.9683
46.8569
46.7444
46.631
46.5167
46.4015
46.2855
46.1688
46.0513
45.9331
45.8143
45.695
45.5751
45.4547
45.3338
45.2126
45.091
44.9691
44.8469
44.7246
44.602
44.4793
44.3566
44.2338
44.111
43.9882
43.8655
43.743
43.6206
43.4984
43.3764
43.2548
43.1334
43.0125
42.8919
42.7717
42.652
42.5329
42.4142
42.2961
42.1787
42.0618
41.9457
41.8302
41.7155
41.6015
41.4883
41.3759
41.2644
41.1537
41.044
40.9351
40.8272
40.7203
40.6143
40.5094
40.4055
40.3026
40.2008
40.1001
40.0005
39.902
39.8047
39.7085
39.6135
39.5197
39.4271
39.3357
39.2455
39.1565
39.0688
38.9823
38.8971
38.8132
38.7306
38.6492
38.5692
38.4904
38.4129
38.3368
38.2619
38.1884
38.1162
38.0453
37.9757
37.9074
37.8404
37.7748
37.7105
37.6475
37.5858
37.5254
37.4663
37.4085
37.352
37.2968
37.2429
37.1903
37.1389
37.0889
37.04
36.9925
36.9461
36.9011
36.8572
36.8146
36.7732
36.7329
36.6939
36.6561
36.6194
36.5839
36.5495
36.5163
36.4842
36.4532
36.4233
36.3945
36.3668
36.3401
36.3145
36.2899
36.2664
36.2438
36.2223
36.2018
36.1822
36.1636
36.1459
36.1291
36.1133
36.0984
36.0843
36.0711
36.0588
36.0473
36.0367
36.0268
36.0178
36.0095
36.002
35.9953
35.9893
35.984
35.9794
35.9755
35.9723
35.9698
35.9679
35.9666
35.966
35.9659
35.9665
35.9676
35.9693
35.9716
35.9743
35.9776
35.9814
35.9857
35.9905
35.9957
36.0013
36.0074
36.014
36.0209
36.0282
36.0359
36.044
36.0524
36.0612
36.0702
36.0796
36.0893
36.0993
36.1096
36.1201
36.1309
36.1419
36.1532
36.1647
36.1763
36.1882
36.2002
36.2124
36.2248
36.2373
36.25
36.2627
36.2756
36.2886
36.3017
36.3149
36.3281
36.3414
36.3548
36.3682
36.3816
36.3951
36.4085
36.422
36.4355
36.449
36.4624
36.4758
36.4892
36.5025
36.5158
36.529
36.5422
36.5553
36.5682
36.5811
36.5939
36.6066
36.6192
36.6316
36.6439
36.6561
36.6682
36.6801
36.6918
36.7034
36.7148
36.7261
36.7372
36.748
36.7588
36.7693
36.7796
36.7897
36.7996
36.8093
36.8187
36.828
36.837
36.8458
36.8544
36.8627
36.8708
36.8786
36.8862
36.8935
36.9006
36.9074
36.914
36.9202
36.9263
36.932
36.9375
36.9427
36.9477
36.9523
36.9567
36.9608
36.9646
36.9681
36.9713
36.9743
36.9769
36.9793
36.9813
36.9831
36.9846
36.9858
36.9867
36.9873
36.9875
50.3205
50.3168
50.3092
50.2983
50.2842
50.2672
50.2474
50.225
50.2
50.1726
50.1426
50.1102
50.0754
50.0381
49.9983
49.9561
49.9114
49.8644
49.8149
49.763
49.7088
49.6523
49.5934
49.5324
49.4691
49.4036
49.336
49.2662
49.1943
49.1204
49.0445
48.9665
48.8866
48.8047
48.721
48.6354
48.548
48.4588
48.3679
48.2754
48.1811
48.0853
47.988
47.8891
47.7887
47.687
47.5839
47.4794
47.3737
47.2667
47.1585
47.0492
46.9388
46.8273
46.7149
46.6014
46.4871
46.3719
46.2559
46.1391
46.0216
45.9035
45.7847
45.6653
45.5454
45.425
45.3041
45.1829
45.0613
44.9394
44.8172
44.6948
44.5723
44.4496
44.3268
44.204
44.0812
43.9584
43.8358
43.7132
43.5908
43.4686
43.3467
43.225
43.1037
42.9827
42.8621
42.742
42.6223
42.5031
42.3845
42.2664
42.149
42.0322
41.916
41.8006
41.6858
41.5719
41.4587
41.3464
41.2348
41.1242
41.0144
40.9056
40.7977
40.6908
40.5849
40.48
40.3761
40.2732
40.1715
40.0708
39.9712
39.8728
39.7755
39.6793
39.5843
39.4905
39.3979
39.3066
39.2164
39.1275
39.0398
38.9534
38.8682
38.7843
38.7017
38.6204
38.5404
38.4616
38.3842
38.3081
38.2333
38.1598
38.0876
38.0167
37.9472
37.8789
37.812
37.7464
37.6821
37.6191
37.5575
37.4971
37.4381
37.3804
37.3239
37.2688
37.2149
37.1623
37.111
37.061
37.0122
36.9647
36.9184
36.8733
36.8295
36.7869
36.7455
36.7054
36.6664
36.6286
36.5919
36.5565
36.5221
36.4889
36.4569
36.4259
36.3961
36.3673
36.3396
36.313
36.2875
36.2629
36.2394
36.2169
36.1954
36.1749
36.1554
36.1368
36.1192
36.1025
36.0867
36.0718
36.0577
36.0446
36.0323
36.0209
36.0102
36.0004
35.9914
35.9832
35.9757
35.969
35.963
35.9578
35.9532
35.9494
35.9462
35.9437
35.9419
35.9406
35.94
35.94
35.9406
35.9418
35.9435
35.9457
35.9485
35.9519
35.9557
35.96
35.9648
35.97
35.9757
35.9818
35.9884
35.9953
36.0027
36.0104
36.0185
36.0269
36.0357
36.0448
36.0543
36.064
36.074
36.0843
36.0948
36.1056
36.1167
36.1279
36.1394
36.1511
36.163
36.1751
36.1873
36.1997
36.2122
36.2249
36.2377
36.2506
36.2636
36.2767
36.2898
36.3031
36.3164
36.3298
36.3432
36.3567
36.3701
36.3836
36.3971
36.4106
36.4241
36.4375
36.451
36.4643
36.4777
36.491
36.5042
36.5174
36.5304
36.5434
36.5563
36.5691
36.5818
36.5944
36.6069
36.6192
36.6314
36.6435
36.6554
36.6671
36.6787
36.6901
36.7014
36.7125
36.7234
36.7341
36.7446
36.7549
36.765
36.7749
36.7846
36.7941
36.8033
36.8124
36.8212
36.8297
36.8381
36.8461
36.854
36.8616
36.8689
36.876
36.8828
36.8894
36.8957
36.9017
36.9074
36.9129
36.9181
36.9231
36.9277
36.9321
36.9362
36.94
36.9435
36.9467
36.9497
36.9523
36.9547
36.9568
36.9585
36.96
36.9612
36.9621
36.9627
36.963
50.2539
50.2501
50.2423
50.231
50.2164
50.1989
50.1785
50.1556
50.1302
50.1023
50.072
50.0393
50.0042
49.9666
49.9267
49.8843
49.8395
49.7923
49.7427
49.6908
49.6365
49.58
49.5211
49.46
49.3967
49.3312
49.2636
49.1938
49.122
49.0481
48.9721
48.8942
48.8143
48.7324
48.6487
48.5632
48.4758
48.3867
48.2958
48.2033
48.1091
48.0133
47.916
47.8172
47.7169
47.6152
47.5121
47.4077
47.302
47.1951
47.087
46.9777
46.8674
46.756
46.6436
46.5302
46.416
46.3008
46.1849
46.0682
45.9508
45.8327
45.714
45.5946
45.4748
45.3545
45.2337
45.1126
44.991
44.8692
44.7471
44.6249
44.5024
44.3798
44.2571
44.1344
44.0117
43.889
43.7664
43.644
43.5217
43.3996
43.2777
43.1562
43.0349
42.9141
42.7936
42.6735
42.554
42.4349
42.3164
42.1984
42.0811
41.9643
41.8483
41.7329
41.6183
41.5045
41.3914
41.2792
41.1678
41.0572
40.9476
40.8389
40.7311
40.6243
40.5185
40.4136
40.3099
40.2071
40.1055
40.0049
39.9054
39.8071
39.7099
39.6139
39.519
39.4253
39.3328
39.2416
39.1515
39.0627
38.9751
38.8888
38.8038
38.72
38.6375
38.5563
38.4763
38.3977
38.3204
38.2444
38.1697
38.0963
38.0242
37.9534
37.884
37.8158
37.749
37.6835
37.6193
37.5565
37.4949
37.4346
37.3757
37.3181
37.2617
37.2066
37.1529
37.1004
37.0492
36.9992
36.9505
36.9031
36.8569
36.812
36.7682
36.7257
36.6844
36.6443
36.6054
36.5677
36.5312
36.4958
36.4615
36.4284
36.3964
36.3655
36.3358
36.3071
36.2795
36.2529
36.2274
36.203
36.1796
36.1571
36.1357
36.1153
36.0958
36.0773
36.0597
36.0431
36.0273
36.0125
35.9985
35.9854
35.9732
35.9618
35.9512
35.9415
35.9325
35.9244
35.9169
35.9103
35.9044
35.8992
35.8947
35.8909
35.8877
35.8853
35.8834
35.8823
35.8817
35.8817
35.8824
35.8836
35.8853
35.8876
35.8905
35.8938
35.8977
35.902
35.9068
35.9121
35.9178
35.924
35.9306
35.9375
35.9449
35.9527
35.9608
35.9692
35.978
35.9872
35.9966
36.0064
36.0164
36.0267
36.0373
36.0481
36.0592
36.0705
36.082
36.0937
36.1056
36.1176
36.1299
36.1423
36.1548
36.1675
36.1803
36.1932
36.2062
36.2194
36.2325
36.2458
36.2591
36.2725
36.286
36.2994
36.3129
36.3264
36.3399
36.3534
36.3669
36.3803
36.3938
36.4072
36.4205
36.4338
36.447
36.4602
36.4733
36.4863
36.4992
36.512
36.5247
36.5373
36.5497
36.5621
36.5743
36.5863
36.5982
36.61
36.6216
36.633
36.6443
36.6553
36.6662
36.6769
36.6875
36.6978
36.7079
36.7178
36.7275
36.737
36.7462
36.7552
36.764
36.7726
36.7809
36.789
36.7968
36.8044
36.8118
36.8188
36.8257
36.8322
36.8385
36.8446
36.8503
36.8558
36.861
36.8659
36.8706
36.875
36.8791
36.8829
36.8864
36.8896
36.8926
36.8952
36.8976
36.8996
36.9014
36.9029
36.9041
36.905
36.9056
36.9058
50.2181
50.2144
50.2067
50.1956
50.1812
50.1638
50.1436
50.1208
50.0954
50.0675
50.0372
50.0044
49.9692
49.9316
49.8916
49.8491
49.8042
49.7569
49.7072
49.6552
49.6009
49.5442
49.4853
49.4241
49.3607
49.2952
49.2275
49.1576
49.0857
49.0117
48.9357
48.8577
48.7778
48.6959
48.6121
48.5265
48.4391
48.3499
48.259
48.1664
48.0722
47.9764
47.879
47.7801
47.6798
47.578
47.4749
47.3704
47.2647
47.1577
47.0496
46.9403
46.8299
46.7185
46.606
46.4926
46.3783
46.2632
46.1472
46.0305
45.913
45.7949
45.6761
45.5568
45.4369
45.3166
45.1958
45.0746
44.953
44.8312
44.7091
44.5868
44.4643
44.3417
44.219
44.0962
43.9735
43.8508
43.7282
43.6057
43.4834
43.3613
43.2395
43.1179
42.9966
42.8758
42.7553
42.6352
42.5156
42.3966
42.278
42.1601
42.0427
41.926
41.81
41.6946
41.58
41.4662
41.3531
41.2409
41.1295
41.019
40.9093
40.8006
40.6929
40.5861
40.4803
40.3755
40.2717
40.169
40.0674
39.9669
39.8674
39.7691
39.6719
39.5759
39.4811
39.3874
39.295
39.2037
39.1137
39.0249
38.9374
38.8511
38.7661
38.6824
38.5999
38.5188
38.4389
38.3603
38.283
38.207
38.1324
38.059
37.987
37.9163
37.8469
37.7788
37.712
37.6466
37.5825
37.5196
37.4581
37.3979
37.339
37.2814
37.2251
37.1701
37.1164
37.064
37.0128
36.9629
36.9143
36.8669
36.8208
36.7759
36.7322
36.6898
36.6486
36.6085
36.5697
36.532
36.4955
36.4602
36.426
36.3929
36.361
36.3302
36.3005
36.2718
36.2443
36.2178
36.1924
36.168
36.1446
36.1222
36.1009
36.0805
36.0611
36.0426
36.0251
36.0085
35.9928
35.978
35.9641
35.9511
35.9389
35.9276
35.9171
35.9074
35.8984
35.8903
35.883
35.8763
35.8705
35.8653
35.8609
35.8571
35.854
35.8516
35.8499
35.8487
35.8482
35.8483
35.8489
35.8502
35.852
35.8543
35.8572
35.8606
35.8645
35.8689
35.8738
35.8791
35.8848
35.891
35.8977
35.9047
35.9121
35.9199
35.928
35.9365
35.9454
35.9545
35.964
35.9738
35.9839
35.9942
36.0048
36.0157
36.0268
36.0381
36.0496
36.0614
36.0733
36.0854
36.0977
36.1101
36.1227
36.1354
36.1482
36.1611
36.1742
36.1873
36.2005
36.2138
36.2272
36.2406
36.254
36.2675
36.281
36.2945
36.3081
36.3216
36.3351
36.3486
36.362
36.3754
36.3888
36.4021
36.4154
36.4285
36.4416
36.4547
36.4676
36.4804
36.4931
36.5057
36.5182
36.5305
36.5427
36.5548
36.5667
36.5785
36.5901
36.6015
36.6128
36.6239
36.6348
36.6455
36.6561
36.6664
36.6765
36.6864
36.6961
36.7056
36.7149
36.7239
36.7327
36.7413
36.7496
36.7577
36.7655
36.7731
36.7805
36.7876
36.7944
36.801
36.8073
36.8133
36.8191
36.8245
36.8298
36.8347
36.8394
36.8437
36.8478
36.8516
36.8552
36.8584
36.8613
36.864
36.8664
36.8684
36.8702
36.8717
36.8729
36.8738
36.8743
36.8746
50.1565
50.1528
50.145
50.1338
50.1192
50.1017
50.0813
50.0583
50.0326
50.0045
49.9739
49.9409
49.9055
49.8677
49.8275
49.7848
49.7398
49.6924
49.6426
49.5904
49.536
49.4793
49.4203
49.359
49.2956
49.23
49.1622
49.0924
49.0204
48.9464
48.8704
48.7923
48.7123
48.6304
48.5466
48.461
48.3736
48.2844
48.1934
48.1008
48.0066
47.9108
47.8134
47.7145
47.6142
47.5124
47.4093
47.3048
47.1991
47.0921
46.984
46.8747
46.7643
46.6529
46.5405
46.4271
46.3128
46.1976
46.0817
45.965
45.8475
45.7294
45.6107
45.4913
45.3715
45.2512
45.1304
45.0092
44.8877
44.7659
44.6438
44.5215
44.3991
44.2765
44.1538
44.0311
43.9084
43.7858
43.6632
43.5408
43.4185
43.2965
43.1747
43.0531
42.9319
42.8111
42.6907
42.5707
42.4512
42.3321
42.2137
42.0958
41.9785
41.8618
41.7458
41.6306
41.516
41.4022
41.2892
41.1771
41.0658
40.9553
40.8457
40.7371
40.6294
40.5227
40.417
40.3123
40.2086
40.106
40.0044
39.9039
39.8046
39.7063
39.6093
39.5133
39.4186
39.325
39.2326
39.1415
39.0516
38.9629
38.8754
38.7892
38.7043
38.6207
38.5383
38.4572
38.3774
38.2989
38.2217
38.1459
38.0713
37.998
37.9261
37.8555
37.7861
37.7182
37.6515
37.5861
37.5221
37.4594
37.3979
37.3378
37.279
37.2215
37.1653
37.1104
37.0568
37.0045
36.9534
36.9036
36.8551
36.8078
36.7617
36.7169
36.6733
36.631
36.5898
36.5499
36.5111
36.4736
36.4371
36.4019
36.3678
36.3348
36.303
36.2723
36.2426
36.2141
36.1866
36.1602
36.1348
36.1105
36.0872
36.0649
36.0437
36.0234
36.004
35.9856
35.9682
35.9517
35.9361
35.9213
35.9075
35.8946
35.8824
35.8712
35.8607
35.8511
35.8423
35.8342
35.8269
35.8204
35.8146
35.8095
35.8051
35.8014
35.7984
35.796
35.7943
35.7932
35.7928
35.7929
35.7936
35.7949
35.7968
35.7992
35.8021
35.8056
35.8095
35.8139
35.8188
35.8242
35.83
35.8363
35.8429
35.85
35.8574
35.8653
35.8735
35.882
35.8909
35.9001
35.9096
35.9194
35.9296
35.9399
35.9506
35.9615
35.9726
35.9839
35.9955
36.0073
36.0192
36.0314
36.0437
36.0561
36.0687
36.0815
36.0943
36.1073
36.1204
36.1335
36.1468
36.1601
36.1735
36.1869
36.2004
36.2139
36.2274
36.2409
36.2545
36.268
36.2815
36.295
36.3085
36.3219
36.3353
36.3486
36.3619
36.3751
36.3882
36.4012
36.4142
36.427
36.4397
36.4523
36.4648
36.4772
36.4894
36.5015
36.5134
36.5252
36.5368
36.5483
36.5596
36.5707
36.5816
36.5923
36.6028
36.6132
36.6233
36.6332
36.6429
36.6524
36.6617
36.6707
36.6795
36.6881
36.6965
36.7046
36.7124
36.72
36.7274
36.7344
36.7413
36.7478
36.7541
36.7602
36.7659
36.7714
36.7767
36.7816
36.7863
36.7906
36.7947
36.7985
36.8021
36.8053
36.8083
36.8109
36.8133
36.8153
36.8171
36.8186
36.8198
36.8207
36.8213
36.8216
50.1161
50.1124
50.1048
50.0938
50.0794
50.062
50.0418
50.0188
49.9933
49.9652
49.9346
49.9016
49.8661
49.8282
49.7878
49.7451
49.6999
49.6524
49.6025
49.5502
49.4957
49.4389
49.3798
49.3184
49.2549
49.1892
49.1214
49.0514
48.9794
48.9053
48.8291
48.751
48.6709
48.5889
48.5051
48.4193
48.3318
48.2425
48.1515
48.0589
47.9645
47.8686
47.7712
47.6722
47.5718
47.47
47.3668
47.2622
47.1564
47.0494
46.9412
46.8318
46.7214
46.6099
46.4974
46.3839
46.2696
46.1544
46.0383
45.9216
45.804
45.6859
45.5671
45.4477
45.3278
45.2074
45.0866
44.9654
44.8438
44.7219
44.5998
44.4775
44.355
44.2323
44.1096
43.9869
43.8641
43.7414
43.6188
43.4964
43.3741
43.252
43.1301
43.0086
42.8874
42.7665
42.646
42.526
42.4065
42.2874
42.1689
42.051
41.9337
41.8171
41.7011
41.5858
41.4712
41.3574
41.2444
41.1323
41.021
40.9105
40.801
40.6923
40.5846
40.4779
40.3722
40.2675
40.1639
40.0612
39.9597
39.8593
39.7599
39.6617
39.5647
39.4688
39.374
39.2805
39.1882
39.097
39.0071
38.9185
38.8311
38.7449
38.66
38.5764
38.4941
38.4131
38.3333
38.2549
38.1777
38.1019
38.0274
37.9542
37.8823
37.8117
37.7425
37.6745
37.6079
37.5426
37.4787
37.416
37.3546
37.2946
37.2359
37.1784
37.1223
37.0674
37.0139
36.9616
36.9106
36.8609
36.8124
36.7652
36.7192
36.6745
36.631
36.5887
36.5476
36.5077
36.4691
36.4315
36.3952
36.36
36.326
36.2931
36.2613
36.2307
36.2011
36.1727
36.1453
36.1189
36.0937
36.0694
36.0462
36.024
36.0028
35.9825
35.9633
35.9449
35.9276
35.9111
35.8956
35.8809
35.8672
35.8543
35.8423
35.8311
35.8207
35.8111
35.8024
35.7944
35.7871
35.7807
35.7749
35.7699
35.7656
35.7619
35.759
35.7567
35.7551
35.754
35.7536
35.7538
35.7546
35.756
35.7579
35.7604
35.7634
35.7669
35.7709
35.7754
35.7803
35.7857
35.7916
35.7979
35.8046
35.8117
35.8192
35.8271
35.8354
35.844
35.8529
35.8622
35.8717
35.8816
35.8918
35.9022
35.9129
35.9238
35.935
35.9464
35.958
35.9698
35.9818
35.994
36.0063
36.0188
36.0314
36.0442
36.0571
36.0701
36.0832
36.0964
36.1097
36.1231
36.1365
36.1499
36.1634
36.177
36.1905
36.2041
36.2177
36.2312
36.2448
36.2583
36.2718
36.2853
36.2987
36.312
36.3253
36.3385
36.3517
36.3647
36.3777
36.3906
36.4033
36.4159
36.4284
36.4408
36.4531
36.4652
36.4771
36.4889
36.5006
36.512
36.5233
36.5344
36.5454
36.5561
36.5667
36.577
36.5872
36.5971
36.6068
36.6163
36.6256
36.6347
36.6435
36.6521
36.6604
36.6685
36.6764
36.684
36.6914
36.6985
36.7053
36.7119
36.7182
36.7242
36.73
36.7355
36.7407
36.7457
36.7503
36.7547
36.7588
36.7626
36.7662
36.7694
36.7724
36.775
36.7774
36.7795
36.7812
36.7827
36.7839
36.7848
36.7854
36.7857
50.0584
50.0547
50.0471
50.0361
50.0218
50.0044
49.9841
49.961
49.9354
49.9072
49.8764
49.8432
49.8075
49.7695
49.729
49.686
49.6407
49.5931
49.543
49.4907
49.436
49.3791
49.3199
49.2585
49.1948
49.1291
49.0611
48.9911
48.919
48.8448
48.7686
48.6904
48.6102
48.5282
48.4442
48.3584
48.2708
48.1815
48.0904
47.9977
47.9033
47.8073
47.7098
47.6108
47.5103
47.4085
47.3052
47.2006
47.0948
46.9877
46.8794
46.77
46.6595
46.548
46.4355
46.322
46.2076
46.0923
45.9763
45.8594
45.7419
45.6237
45.5049
45.3854
45.2655
45.1451
45.0242
44.903
44.7814
44.6595
44.5374
44.415
44.2925
44.1699
44.0471
43.9244
43.8016
43.6789
43.5563
43.4338
43.3115
43.1895
43.0676
42.9461
42.8248
42.704
42.5835
42.4635
42.344
42.225
42.1065
41.9886
41.8713
41.7547
41.6387
41.5234
41.4089
41.2951
41.1822
41.07
40.9588
40.8483
40.7388
40.6302
40.5226
40.4159
40.3103
40.2056
40.102
39.9994
39.8979
39.7976
39.6983
39.6001
39.5031
39.4073
39.3126
39.2191
39.1269
39.0358
38.946
38.8574
38.7701
38.684
38.5992
38.5156
38.4334
38.3524
38.2728
38.1944
38.1173
38.0416
37.9671
37.894
37.8222
37.7517
37.6826
37.6147
37.5482
37.483
37.4191
37.3565
37.2952
37.2353
37.1766
37.1193
37.0633
37.0085
36.955
36.9029
36.8519
36.8023
36.7539
36.7068
36.6609
36.6163
36.5729
36.5307
36.4897
36.4499
36.4113
36.3739
36.3377
36.3026
36.2687
36.2359
36.2042
36.1736
36.1442
36.1158
36.0885
36.0622
36.0371
36.0129
35.9898
35.9676
35.9465
35.9264
35.9072
35.889
35.8717
35.8553
35.8399
35.8253
35.8117
35.7988
35.7869
35.7758
35.7655
35.756
35.7473
35.7394
35.7323
35.7259
35.7202
35.7153
35.711
35.7075
35.7046
35.7024
35.7008
35.6999
35.6995
35.6998
35.7007
35.7021
35.7041
35.7066
35.7097
35.7132
35.7173
35.7219
35.7269
35.7324
35.7383
35.7447
35.7514
35.7586
35.7662
35.7741
35.7824
35.7911
35.8001
35.8094
35.819
35.8289
35.8391
35.8496
35.8603
35.8713
35.8826
35.894
35.9056
35.9175
35.9295
35.9418
35.9542
35.9667
35.9794
35.9922
36.0051
36.0182
36.0313
36.0446
36.0579
36.0713
36.0847
36.0982
36.1117
36.1253
36.1389
36.1525
36.1661
36.1797
36.1933
36.2068
36.2204
36.2339
36.2473
36.2607
36.274
36.2873
36.3004
36.3135
36.3265
36.3394
36.3521
36.3648
36.3773
36.3897
36.402
36.4141
36.4261
36.4379
36.4496
36.461
36.4724
36.4835
36.4944
36.5052
36.5158
36.5261
36.5363
36.5462
36.556
36.5655
36.5748
36.5839
36.5927
36.6013
36.6097
36.6178
36.6256
36.6333
36.6406
36.6477
36.6546
36.6612
36.6675
36.6735
36.6793
36.6848
36.6901
36.695
36.6997
36.7041
36.7082
36.712
36.7155
36.7188
36.7217
36.7244
36.7268
36.7288
36.7306
36.7321
36.7333
36.7342
36.7348
36.7351
50.0152
50.0116
50.0041
49.9933
49.9791
49.9619
49.9417
49.9188
49.8932
49.865
49.8342
49.801
49.7652
49.7271
49.6865
49.6434
49.598
49.5502
49.5001
49.4476
49.3928
49.3357
49.2764
49.2149
49.1512
49.0853
49.0172
48.9471
48.8748
48.8005
48.7242
48.6459
48.5656
48.4834
48.3994
48.3135
48.2258
48.1363
48.0451
47.9523
47.8578
47.7617
47.6641
47.565
47.4644
47.3624
47.2591
47.1544
47.0484
46.9412
46.8329
46.7234
46.6128
46.5011
46.3885
46.2749
46.1604
46.045
45.9289
45.812
45.6943
45.576
45.4571
45.3376
45.2176
45.0971
44.9761
44.8548
44.7331
44.6112
44.4889
44.3665
44.2439
44.1212
43.9984
43.8756
43.7528
43.63
43.5073
43.3848
43.2624
43.1403
43.0184
42.8968
42.7755
42.6546
42.5341
42.414
42.2944
42.1754
42.0569
41.9389
41.8216
41.7049
41.5889
41.4736
41.3591
41.2453
41.1323
41.0202
40.9089
40.7984
40.6889
40.5803
40.4727
40.366
40.2603
40.1557
40.0521
39.9495
39.848
39.7477
39.6484
39.5503
39.4533
39.3575
39.2628
39.1694
39.0771
38.9861
38.8963
38.8077
38.7204
38.6344
38.5496
38.4661
38.3839
38.303
38.2234
38.1451
38.0681
37.9924
37.918
37.8449
37.7732
37.7028
37.6336
37.5659
37.4994
37.4343
37.3704
37.3079
37.2467
37.1868
37.1283
37.071
37.015
36.9603
36.907
36.8549
36.804
36.7545
36.7062
36.6591
36.6133
36.5688
36.5254
36.4833
36.4424
36.4027
36.3642
36.3269
36.2908
36.2558
36.2219
36.1892
36.1576
36.1271
36.0978
36.0695
36.0423
36.0161
35.991
35.9669
35.9439
35.9219
35.9008
35.8808
35.8617
35.8435
35.8264
35.8101
35.7947
35.7803
35.7667
35.754
35.7421
35.7311
35.7209
35.7115
35.7029
35.695
35.688
35.6817
35.6761
35.6712
35.6671
35.6636
35.6608
35.6587
35.6572
35.6563
35.6561
35.6564
35.6573
35.6588
35.6609
35.6635
35.6667
35.6703
35.6744
35.6791
35.6842
35.6897
35.6957
35.7022
35.709
35.7162
35.7239
35.7319
35.7403
35.749
35.758
35.7674
35.7771
35.7871
35.7973
35.8079
35.8187
35.8297
35.841
35.8525
35.8642
35.8761
35.8882
35.9005
35.9129
35.9255
35.9383
35.9511
35.9641
35.9772
35.9904
36.0037
36.017
36.0305
36.044
36.0575
36.0711
36.0847
36.0983
36.112
36.1256
36.1393
36.1529
36.1665
36.18
36.1936
36.207
36.2205
36.2338
36.2471
36.2603
36.2734
36.2864
36.2993
36.3121
36.3248
36.3374
36.3498
36.3621
36.3743
36.3863
36.3981
36.4098
36.4213
36.4326
36.4438
36.4548
36.4655
36.4761
36.4865
36.4967
36.5067
36.5164
36.526
36.5353
36.5444
36.5532
36.5618
36.5702
36.5783
36.5862
36.5938
36.6012
36.6083
36.6152
36.6218
36.6281
36.6342
36.64
36.6455
36.6507
36.6557
36.6604
36.6648
36.6689
36.6727
36.6763
36.6795
36.6825
36.6851
36.6875
36.6896
36.6914
36.6929
36.694
36.6949
36.6955
36.6958
49.9606
49.957
49.9496
49.9388
49.9247
49.9075
49.8873
49.8644
49.8387
49.8104
49.7796
49.7462
49.7103
49.672
49.6312
49.5881
49.5425
49.4946
49.4443
49.3917
49.3368
49.2796
49.2201
49.1585
49.0946
49.0286
48.9605
48.8902
48.8178
48.7434
48.667
48.5885
48.5082
48.4259
48.3417
48.2557
48.1679
48.0783
47.987
47.8941
47.7995
47.7033
47.6056
47.5064
47.4057
47.3036
47.2002
47.0954
46.9893
46.882
46.7736
46.664
46.5533
46.4416
46.3288
46.2151
46.1006
45.9851
45.8689
45.7519
45.6342
45.5158
45.3968
45.2772
45.1571
45.0365
44.9155
44.7941
44.6724
44.5503
44.428
44.3055
44.1829
44.0601
43.9372
43.8144
43.6915
43.5687
43.4459
43.3234
43.2009
43.0788
42.9568
42.8352
42.7139
42.5929
42.4724
42.3523
42.2327
42.1136
41.9951
41.8771
41.7598
41.6431
41.5271
41.4118
41.2972
41.1834
41.0705
40.9583
40.847
40.7366
40.6271
40.5185
40.4109
40.3042
40.1986
40.0939
39.9903
39.8878
39.7864
39.686
39.5868
39.4887
39.3917
39.2959
39.2013
39.1079
39.0157
38.9248
38.835
38.7465
38.6593
38.5733
38.4886
38.4051
38.323
38.2422
38.1626
38.0844
38.0074
37.9318
37.8575
37.7845
37.7128
37.6425
37.5734
37.5057
37.4394
37.3743
37.3106
37.2481
37.187
37.1272
37.0687
37.0116
36.9557
36.9011
36.8478
36.7958
36.7451
36.6956
36.6474
36.6005
36.5548
36.5103
36.4671
36.4251
36.3843
36.3447
36.3063
36.269
36.233
36.1981
36.1644
36.1317
36.1003
36.0699