/*--------------------------------*- C++ -*----------------------------------*\
| =========                 |                                                 |
| \\      /  F ield         | OpenFOAM: The Open Source CFD Toolbox           |
|  \\    /   O peration     | Version:  2212                                  |
|   \\  /    A nd           | Website:  www.openfoam.com                      |
|    \\/     M anipulation  |                                                 |
\*---------------------------------------------------------------------------*/
FoamFile
{
    version     2.0;
    format      ascii;
    arch        "LSB;label=32;scalar=64";
    class       volScalarField;
    location    "760";
    object      p_rgh;
}
// * * * * * * * * * * * * * * * * * * * * * * * * * * * * * * * * * * * * * //

dimensions      [1 -1 -2 0 0 0 0];

internalField   nonuniform List<scalar> 
204800
(
50.4927
50.4922
50.4881
50.4806
50.4702
50.4568
50.4403
50.4207
50.398
50.3723
50.3436
50.3122
50.278
50.2412
50.2018
50.1599
50.1156
50.0687
50.0194
49.9677
49.9137
49.8572
49.7985
49.7375
49.6742
49.6087
49.541
49.4713
49.3994
49.3254
49.2494
49.1714
49.0915
49.0096
48.9258
48.8402
48.7528
48.6636
48.5726
48.48
48.3857
48.2898
48.1924
48.0934
47.993
47.8912
47.788
47.6834
47.5776
47.4705
47.3622
47.2528
47.1423
47.0307
46.9182
46.8046
46.6902
46.5749
46.4588
46.3419
46.2243
46.106
45.987
45.8675
45.7475
45.627
45.506
45.3846
45.2629
45.1409
45.0186
44.8961
44.7734
44.6506
44.5277
44.4047
44.2818
44.1589
44.0361
43.9134
43.7908
43.6685
43.5464
43.4246
43.3032
43.1821
43.0614
42.9411
42.8213
42.7019
42.5832
42.465
42.3474
42.2304
42.1141
41.9986
41.8837
41.7696
41.6563
41.5438
41.4322
41.3214
41.2115
41.1026
40.9946
40.8875
40.7815
40.6764
40.5724
40.4695
40.3676
40.2668
40.1671
40.0685
39.9711
39.8748
39.7797
39.6858
39.5931
39.5016
39.4114
39.3224
39.2346
39.148
39.0628
38.9788
38.8961
38.8147
38.7346
38.6557
38.5782
38.502
38.4271
38.3535
38.2813
38.2103
38.1407
38.0724
38.0054
37.9397
37.8754
37.8124
37.7506
37.6902
37.6311
37.5733
37.5168
37.4616
37.4077
37.3551
37.3037
37.2536
37.2048
37.1572
37.1109
37.0658
37.022
36.9794
36.938
36.8978
36.8587
36.8209
36.7843
36.7488
36.7144
36.6812
36.6491
36.6182
36.5883
36.5595
36.5318
36.5052
36.4796
36.4551
36.4316
36.4091
36.3876
36.3671
36.3476
36.329
36.3114
36.2947
36.2789
36.264
36.25
36.2369
36.2246
36.2132
36.2026
36.1928
36.1838
36.1756
36.1681
36.1615
36.1555
36.1503
36.1458
36.1419
36.1388
36.1363
36.1345
36.1333
36.1327
36.1327
36.1334
36.1346
36.1363
36.1386
36.1414
36.1448
36.1487
36.153
36.1578
36.1631
36.1688
36.175
36.1816
36.1886
36.196
36.2037
36.2119
36.2203
36.2292
36.2383
36.2478
36.2575
36.2676
36.2779
36.2885
36.2993
36.3104
36.3217
36.3333
36.345
36.3569
36.369
36.3813
36.3937
36.4063
36.419
36.4318
36.4447
36.4578
36.4709
36.4841
36.4974
36.5108
36.5242
36.5377
36.5511
36.5646
36.5782
36.5917
36.6052
36.6187
36.6322
36.6457
36.6591
36.6725
36.6858
36.6991
36.7122
36.7254
36.7384
36.7513
36.7641
36.7769
36.7895
36.802
36.8143
36.8265
36.8386
36.8505
36.8623
36.8739
36.8854
36.8967
36.9078
36.9187
36.9294
36.94
36.9503
36.9604
36.9704
36.9801
36.9896
36.9988
37.0079
37.0167
37.0253
37.0336
37.0417
37.0496
37.0572
37.0645
37.0716
37.0784
37.085
37.0913
37.0973
37.1031
37.1086
37.1138
37.1188
37.1234
37.1278
37.1319
37.1357
37.1392
37.1425
37.1454
37.1481
37.1505
37.1525
37.1543
37.1558
37.157
37.1579
37.1585
37.1587
50.4151
50.4121
50.4054
50.3953
50.3821
50.3661
50.3474
50.326
50.302
50.2753
50.246
50.2142
50.1798
50.1428
50.1034
50.0615
50.0171
49.9703
49.9211
49.8695
49.8154
49.7591
49.7004
49.6395
49.5763
49.5109
49.4434
49.3737
49.302
49.2281
49.1523
49.0744
48.9946
48.9129
48.8292
48.7438
48.6565
48.5674
48.4766
48.3842
48.2901
48.1943
48.0971
47.9983
47.8981
47.7964
47.6934
47.589
47.4834
47.3765
47.2684
47.1592
47.0489
46.9375
46.8251
46.7118
46.5976
46.4825
46.3666
46.2499
46.1325
46.0144
45.8957
45.7764
45.6566
45.5363
45.4155
45.2944
45.1729
45.051
44.929
44.8067
44.6842
44.5616
44.439
44.3162
44.1935
44.0708
43.9483
43.8258
43.7035
43.5814
43.4595
43.338
43.2167
43.0958
42.9753
42.8553
42.7357
42.6166
42.498
42.3801
42.2627
42.146
42.0299
41.9145
41.7999
41.686
41.5729
41.4606
41.3492
41.2386
41.129
41.0202
40.9124
40.8056
40.6997
40.5949
40.491
40.3883
40.2866
40.186
40.0865
39.9881
39.8909
39.7948
39.6999
39.6062
39.5136
39.4223
39.3322
39.2434
39.1558
39.0694
38.9843
38.9005
38.8179
38.7367
38.6567
38.5781
38.5007
38.4246
38.3499
38.2764
38.2043
38.1335
38.064
37.9959
37.929
37.8635
37.7992
37.7363
37.6747
37.6144
37.5555
37.4978
37.4414
37.3863
37.3325
37.28
37.2287
37.1787
37.13
37.0825
37.0363
36.9913
36.9476
36.905
36.8637
36.8236
36.7847
36.7469
36.7103
36.6749
36.6406
36.6075
36.5755
36.5446
36.5148
36.4861
36.4585
36.4319
36.4064
36.3819
36.3585
36.336
36.3146
36.2941
36.2747
36.2561
36.2385
36.2219
36.2061
36.1913
36.1773
36.1642
36.152
36.1406
36.13
36.1202
36.1113
36.1031
36.0957
36.089
36.0831
36.0779
36.0734
36.0696
36.0664
36.064
36.0621
36.061
36.0604
36.0604
36.0611
36.0623
36.064
36.0663
36.0692
36.0725
36.0764
36.0807
36.0855
36.0908
36.0965
36.1027
36.1093
36.1163
36.1236
36.1314
36.1395
36.148
36.1568
36.1659
36.1754
36.1852
36.1952
36.2055
36.2161
36.2269
36.238
36.2493
36.2608
36.2725
36.2844
36.2965
36.3087
36.3211
36.3337
36.3464
36.3592
36.3721
36.3851
36.3982
36.4114
36.4247
36.4381
36.4514
36.4649
36.4783
36.4918
36.5053
36.5188
36.5323
36.5458
36.5593
36.5727
36.5861
36.5995
36.6128
36.626
36.6392
36.6523
36.6653
36.6782
36.691
36.7037
36.7163
36.7288
36.7411
36.7533
36.7654
36.7773
36.789
36.8006
36.8121
36.8233
36.8344
36.8453
36.856
36.8665
36.8768
36.887
36.8969
36.9066
36.916
36.9253
36.9343
36.9431
36.9517
36.96
36.9681
36.9759
36.9835
36.9909
36.9979
37.0048
37.0113
37.0176
37.0237
37.0294
37.0349
37.0401
37.045
37.0497
37.0541
37.0582
37.062
37.0655
37.0687
37.0717
37.0743
37.0767
37.0787
37.0805
37.082
37.0832
37.0841
37.0847
37.085
50.3985
50.395
50.3881
50.378
50.3649
50.3489
50.3302
50.3089
50.2848
50.2581
50.2288
50.1969
50.1624
50.1255
50.086
50.044
49.9996
49.9528
49.9035
49.8518
49.7978
49.7414
49.6827
49.6218
49.5586
49.4932
49.4256
49.3559
49.2842
49.2103
49.1345
49.0566
48.9768
48.895
48.8114
48.7259
48.6386
48.5495
48.4587
48.3662
48.2721
48.1764
48.0791
47.9804
47.8801
47.7784
47.6754
47.571
47.4654
47.3585
47.2504
47.1412
47.0309
46.9195
46.8071
46.6938
46.5796
46.4645
46.3486
46.2319
46.1145
45.9964
45.8777
45.7584
45.6386
45.5183
45.3975
45.2764
45.1549
45.0331
44.911
44.7887
44.6663
44.5437
44.421
44.2983
44.1756
44.0529
43.9303
43.8079
43.6856
43.5635
43.4417
43.3201
43.1989
43.078
42.9575
42.8374
42.7179
42.5988
42.4803
42.3623
42.2449
42.1282
42.0121
41.8968
41.7822
41.6683
41.5552
41.443
41.3315
41.221
41.1113
41.0026
40.8948
40.788
40.6821
40.5773
40.4735
40.3708
40.2691
40.1685
40.069
39.9707
39.8735
39.7774
39.6825
39.5888
39.4963
39.405
39.3149
39.2261
39.1385
39.0522
38.9671
38.8833
38.8008
38.7195
38.6396
38.561
38.4836
38.4076
38.3329
38.2594
38.1873
38.1166
38.0471
37.9789
37.9121
37.8466
37.7824
37.7195
37.6579
37.5977
37.5387
37.481
37.4247
37.3696
37.3158
37.2633
37.2121
37.1621
37.1134
37.066
37.0198
36.9748
36.9311
36.8886
36.8473
36.8072
36.7683
36.7306
36.694
36.6586
36.6244
36.5912
36.5593
36.5284
36.4986
36.4699
36.4423
36.4158
36.3903
36.3658
36.3424
36.32
36.2986
36.2781
36.2587
36.2401
36.2226
36.2059
36.1902
36.1754
36.1614
36.1483
36.1361
36.1247
36.1142
36.1044
36.0955
36.0873
36.0799
36.0733
36.0674
36.0622
36.0577
36.0539
36.0508
36.0483
36.0465
36.0454
36.0448
36.0449
36.0455
36.0467
36.0485
36.0508
36.0537
36.057
36.0609
36.0653
36.0701
36.0754
36.0811
36.0873
36.0939
36.1009
36.1083
36.116
36.1242
36.1327
36.1415
36.1506
36.1601
36.1699
36.1799
36.1902
36.2008
36.2117
36.2227
36.234
36.2455
36.2573
36.2692
36.2813
36.2935
36.3059
36.3185
36.3312
36.344
36.3569
36.37
36.3831
36.3963
36.4096
36.4229
36.4363
36.4498
36.4632
36.4767
36.4902
36.5037
36.5172
36.5307
36.5442
36.5576
36.5711
36.5844
36.5977
36.611
36.6241
36.6372
36.6502
36.6631
36.676
36.6887
36.7012
36.7137
36.7261
36.7383
36.7503
36.7622
36.774
36.7856
36.797
36.8083
36.8194
36.8303
36.841
36.8515
36.8618
36.872
36.8819
36.8916
36.9011
36.9103
36.9193
36.9281
36.9367
36.945
36.9531
36.961
36.9685
36.9759
36.983
36.9898
36.9964
37.0026
37.0087
37.0144
37.0199
37.0251
37.0301
37.0347
37.0391
37.0432
37.047
37.0505
37.0537
37.0567
37.0593
37.0617
37.0638
37.0655
37.067
37.0682
37.0691
37.0697
37.07
50.3259
50.322
50.3142
50.3031
50.2888
50.2717
50.2519
50.2295
50.2046
50.1772
50.1473
50.115
50.0803
50.0431
50.0034
49.9614
49.9169
49.87
49.8207
49.769
49.7149
49.6586
49.5999
49.539
49.4758
49.4105
49.343
49.2733
49.2016
49.1278
49.052
48.9742
48.8945
48.8128
48.7293
48.6439
48.5566
48.4677
48.377
48.2846
48.1906
48.095
47.9978
47.8991
47.799
47.6974
47.5945
47.4902
47.3847
47.2779
47.17
47.0609
46.9507
46.8395
46.7272
46.614
46.4999
46.3849
46.2692
46.1526
46.0354
45.9174
45.7989
45.6797
45.56
45.4399
45.3193
45.1983
45.0769
44.9552
44.8333
44.7112
44.5889
44.4665
44.3439
44.2214
44.0988
43.9763
43.8539
43.7316
43.6094
43.4875
43.3658
43.2444
43.1233
43.0026
42.8823
42.7624
42.643
42.524
42.4057
42.2878
42.1706
42.0541
41.9382
41.823
41.7085
41.5948
41.4819
41.3697
41.2585
41.1481
41.0386
40.93
40.8224
40.7157
40.61
40.5053
40.4017
40.2991
40.1976
40.0971
39.9978
39.8996
39.8025
39.7066
39.6118
39.5183
39.4259
39.3347
39.2448
39.1561
39.0687
38.9825
38.8975
38.8138
38.7315
38.6503
38.5705
38.492
38.4148
38.3389
38.2643
38.191
38.119
38.0483
37.979
37.911
37.8442
37.7788
37.7148
37.652
37.5905
37.5303
37.4715
37.4139
37.3577
37.3027
37.249
37.1966
37.1455
37.0956
37.047
36.9997
36.9536
36.9087
36.8651
36.8226
36.7814
36.7414
36.7026
36.6649
36.6284
36.5931
36.5589
36.5259
36.494
36.4632
36.4335
36.4049
36.3773
36.3509
36.3254
36.301
36.2777
36.2553
36.2339
36.2136
36.1942
36.1757
36.1582
36.1416
36.1259
36.1111
36.0972
36.0842
36.072
36.0607
36.0502
36.0405
36.0316
36.0234
36.0161
36.0094
36.0036
35.9984
35.994
35.9902
35.9871
35.9847
35.9829
35.9818
35.9813
35.9813
35.982
35.9832
35.985
35.9874
35.9902
35.9936
35.9975
36.0019
36.0067
36.012
36.0178
36.024
36.0306
36.0376
36.045
36.0528
36.0609
36.0694
36.0782
36.0874
36.0969
36.1066
36.1167
36.127
36.1376
36.1484
36.1595
36.1708
36.1823
36.1941
36.206
36.2181
36.2303
36.2427
36.2553
36.268
36.2808
36.2937
36.3068
36.3199
36.3331
36.3464
36.3597
36.3731
36.3865
36.4
36.4135
36.427
36.4405
36.454
36.4675
36.4809
36.4944
36.5078
36.5211
36.5344
36.5477
36.5608
36.5739
36.5869
36.5998
36.6126
36.6253
36.6379
36.6503
36.6627
36.6749
36.6869
36.6988
36.7106
36.7222
36.7336
36.7449
36.7559
36.7668
36.7775
36.7881
36.7984
36.8085
36.8184
36.8281
36.8375
36.8468
36.8558
36.8646
36.8732
36.8815
36.8896
36.8974
36.905
36.9123
36.9194
36.9262
36.9328
36.9391
36.9451
36.9508
36.9563
36.9615
36.9665
36.9711
36.9755
36.9796
36.9834
36.9869
36.9901
36.9931
36.9957
36.9981
37.0001
37.0019
37.0034
37.0046
37.0055
37.006
37.0063
50.2972
50.2935
50.2858
50.2749
50.2608
50.2438
50.2241
50.2017
50.1768
50.1494
50.1195
50.0872
50.0523
50.0151
49.9753
49.9332
49.8886
49.8417
49.7923
49.7405
49.6864
49.63
49.5713
49.5103
49.4471
49.3817
49.3141
49.2445
49.1727
49.0989
49.0231
48.9452
48.8655
48.7838
48.7002
48.6147
48.5275
48.4385
48.3478
48.2554
48.1613
48.0657
47.9685
47.8698
47.7696
47.668
47.5651
47.4608
47.3553
47.2485
47.1405
47.0314
46.9212
46.8099
46.6977
46.5845
46.4703
46.3554
46.2396
46.123
46.0057
45.8878
45.7692
45.65
45.5304
45.4102
45.2896
45.1685
45.0472
44.9255
44.8036
44.6815
44.5591
44.4367
44.3142
44.1916
44.0691
43.9465
43.8241
43.7018
43.5797
43.4577
43.3361
43.2147
43.0936
42.9729
42.8525
42.7327
42.6132
42.4943
42.376
42.2582
42.141
42.0244
41.9085
41.7933
41.6789
41.5652
41.4523
41.3402
41.2289
41.1185
41.0091
40.9005
40.7929
40.6862
40.5806
40.4759
40.3723
40.2697
40.1682
40.0678
39.9685
39.8703
39.7733
39.6774
39.5826
39.4891
39.3968
39.3056
39.2157
39.1271
39.0397
38.9535
38.8686
38.7849
38.7026
38.6215
38.5417
38.4632
38.3861
38.3102
38.2356
38.1624
38.0904
38.0198
37.9505
37.8825
37.8158
37.7505
37.6864
37.6237
37.5622
37.5021
37.4433
37.3858
37.3296
37.2746
37.221
37.1686
37.1176
37.0677
37.0192
36.9719
36.9258
36.881
36.8374
36.795
36.7538
36.7138
36.675
36.6374
36.601
36.5657
36.5316
36.4986
36.4667
36.436
36.4063
36.3777
36.3502
36.3238
36.2984
36.274
36.2507
36.2284
36.2071
36.1867
36.1673
36.1489
36.1314
36.1149
36.0993
36.0845
36.0706
36.0576
36.0455
36.0342
36.0237
36.0141
36.0052
35.9971
35.9898
35.9832
35.9773
35.9722
35.9678
35.9641
35.961
35.9586
35.9569
35.9558
35.9553
35.9554
35.9561
35.9573
35.9592
35.9615
35.9644
35.9678
35.9718
35.9762
35.981
35.9864
35.9922
35.9984
36.005
36.012
36.0195
36.0273
36.0354
36.0439
36.0528
36.062
36.0715
36.0813
36.0913
36.1017
36.1123
36.1231
36.1342
36.1456
36.1571
36.1688
36.1808
36.1929
36.2052
36.2176
36.2302
36.2429
36.2557
36.2686
36.2817
36.2948
36.308
36.3213
36.3347
36.3481
36.3615
36.375
36.3885
36.402
36.4155
36.4291
36.4426
36.456
36.4695
36.4829
36.4963
36.5096
36.5228
36.536
36.5491
36.5621
36.575
36.5878
36.6005
36.6131
36.6256
36.6379
36.6501
36.6622
36.6741
36.6859
36.6975
36.7089
36.7202
36.7312
36.7421
36.7529
36.7634
36.7737
36.7838
36.7937
36.8034
36.8129
36.8221
36.8312
36.84
36.8485
36.8569
36.8649
36.8728
36.8804
36.8877
36.8948
36.9016
36.9082
36.9145
36.9205
36.9262
36.9317
36.9369
36.9419
36.9465
36.9509
36.955
36.9588
36.9623
36.9655
36.9685
36.9711
36.9735
36.9755
36.9773
36.9788
36.98
36.9809
36.9815
36.9818
50.2306
50.2267
50.2189
50.2076
50.193
50.1755
50.1553
50.1324
50.107
50.0792
50.0489
50.0162
49.9811
49.9436
49.9037
49.8614
49.8167
49.7697
49.7202
49.6684
49.6142
49.5577
49.499
49.438
49.3747
49.3093
49.2418
49.1721
49.1004
49.0266
48.9508
48.8729
48.7932
48.7115
48.6279
48.5425
48.4553
48.3664
48.2757
48.1833
48.0893
47.9937
47.8965
47.7979
47.6978
47.5963
47.4934
47.3891
47.2836
47.1769
47.069
46.9599
46.8498
46.7386
46.6264
46.5133
46.3992
46.2843
46.1686
46.0521
45.9349
45.817
45.6985
45.5794
45.4598
45.3397
45.2192
45.0983
44.977
44.8554
44.7336
44.6115
44.4893
44.3669
44.2445
44.122
43.9996
43.8771
43.7548
43.6326
43.5106
43.3887
43.2671
43.1458
43.0248
42.9042
42.784
42.6642
42.5449
42.4261
42.3078
42.1901
42.073
41.9566
41.8408
41.7257
41.6114
41.4978
41.385
41.273
41.1619
41.0516
40.9422
40.8338
40.7262
40.6197
40.5141
40.4096
40.3061
40.2036
40.1022
40.0019
39.9027
39.8046
39.7077
39.6119
39.5173
39.4239
39.3317
39.2406
39.1509
39.0623
38.975
38.8889
38.8041
38.7206
38.6383
38.5574
38.4777
38.3993
38.3223
38.2465
38.172
38.0989
38.027
37.9565
37.8873
37.8194
37.7528
37.6876
37.6236
37.561
37.4996
37.4396
37.3809
37.3235
37.2674
37.2125
37.159
37.1067
37.0557
37.006
36.9575
36.9103
36.8643
36.8196
36.7761
36.7338
36.6927
36.6528
36.6141
36.5766
36.5402
36.505
36.471
36.438
36.4062
36.3756
36.346
36.3175
36.29
36.2637
36.2384
36.2141
36.1908
36.1686
36.1473
36.127
36.1077
36.0894
36.072
36.0555
36.0399
36.0252
36.0114
35.9985
35.9864
35.9751
35.9647
35.9551
35.9463
35.9382
35.931
35.9244
35.9186
35.9136
35.9092
35.9055
35.9025
35.9002
35.8985
35.8974
35.8969
35.8971
35.8978
35.8991
35.901
35.9034
35.9063
35.9098
35.9137
35.9182
35.9231
35.9284
35.9342
35.9405
35.9471
35.9542
35.9617
35.9695
35.9777
35.9862
35.9951
36.0043
36.0138
36.0236
36.0337
36.0441
36.0547
36.0656
36.0767
36.0881
36.0996
36.1114
36.1233
36.1354
36.1477
36.1602
36.1728
36.1855
36.1983
36.2113
36.2243
36.2375
36.2507
36.264
36.2774
36.2908
36.3043
36.3177
36.3312
36.3448
36.3583
36.3718
36.3853
36.3988
36.4123
36.4257
36.439
36.4524
36.4656
36.4788
36.4919
36.5049
36.5178
36.5306
36.5433
36.5559
36.5684
36.5807
36.593
36.605
36.6169
36.6287
36.6403
36.6517
36.663
36.6741
36.685
36.6957
36.7062
36.7165
36.7267
36.7366
36.7463
36.7557
36.765
36.774
36.7828
36.7914
36.7997
36.8078
36.8156
36.8232
36.8305
36.8376
36.8444
36.851
36.8573
36.8633
36.8691
36.8746
36.8798
36.8847
36.8894
36.8937
36.8978
36.9016
36.9051
36.9084
36.9113
36.914
36.9163
36.9184
36.9202
36.9216
36.9228
36.9237
36.9243
36.9246
50.1948
50.191
50.1833
50.1722
50.1578
50.1405
50.1204
50.0976
50.0723
50.0444
50.0141
49.9814
49.9462
49.9086
49.8687
49.8263
49.7815
49.7343
49.6847
49.6328
49.5785
49.522
49.4631
49.4021
49.3388
49.2733
49.2057
49.136
49.0642
48.9903
48.9144
48.8365
48.7567
48.675
48.5914
48.5059
48.4187
48.3296
48.2389
48.1465
48.0524
47.9568
47.8596
47.7609
47.6607
47.5591
47.4562
47.3519
47.2464
47.1396
47.0317
46.9226
46.8124
46.7011
46.5889
46.4757
46.3616
46.2467
46.1309
46.0144
45.8972
45.7792
45.6607
45.5416
45.422
45.3018
45.1813
45.0603
44.939
44.8174
44.6955
44.5735
44.4512
44.3288
44.2064
44.0839
43.9614
43.839
43.7166
43.5944
43.4723
43.3505
43.2289
43.1076
42.9866
42.8659
42.7457
42.6259
42.5066
42.3878
42.2695
42.1518
42.0347
41.9183
41.8025
41.6874
41.5731
41.4595
41.3467
41.2347
41.1236
41.0133
40.904
40.7955
40.688
40.5815
40.476
40.3715
40.268
40.1655
40.0642
39.9639
39.8647
39.7667
39.6697
39.574
39.4794
39.386
39.2938
39.2028
39.1131
39.0246
38.9373
38.8513
38.7665
38.683
38.6008
38.5199
38.4403
38.3619
38.2849
38.2092
38.1347
38.0616
37.9898
37.9194
37.8502
37.7824
37.7158
37.6506
37.5867
37.5241
37.4629
37.4029
37.3442
37.2869
37.2308
37.176
37.1225
37.0703
37.0194
36.9697
36.9213
36.8741
36.8282
36.7835
36.7401
36.6978
36.6568
36.617
36.5783
36.5408
36.5046
36.4694
36.4354
36.4026
36.3708
36.3402
36.3107
36.2822
36.2548
36.2285
36.2033
36.1791
36.1559
36.1337
36.1125
36.0922
36.073
36.0547
36.0373
36.0209
36.0054
35.9907
35.977
35.9641
35.9521
35.9409
35.9305
35.9209
35.9122
35.9042
35.897
35.8905
35.8847
35.8797
35.8754
35.8718
35.8688
35.8665
35.8649
35.8638
35.8634
35.8636
35.8644
35.8657
35.8676
35.8701
35.8731
35.8766
35.8806
35.885
35.89
35.8954
35.9012
35.9075
35.9142
35.9213
35.9288
35.9367
35.9449
35.9535
35.9624
35.9716
35.9812
35.991
36.0012
36.0116
36.0222
36.0332
36.0443
36.0557
36.0673
36.079
36.091
36.1032
36.1155
36.128
36.1406
36.1533
36.1662
36.1792
36.1923
36.2054
36.2187
36.232
36.2454
36.2588
36.2723
36.2858
36.2994
36.3129
36.3264
36.34
36.3535
36.367
36.3805
36.3939
36.4073
36.4206
36.4339
36.4471
36.4602
36.4733
36.4862
36.499
36.5117
36.5243
36.5368
36.5492
36.5614
36.5735
36.5854
36.5972
36.6088
36.6203
36.6315
36.6426
36.6535
36.6643
36.6748
36.6851
36.6953
36.7052
36.7149
36.7244
36.7336
36.7427
36.7515
36.76
36.7684
36.7765
36.7843
36.7919
36.7992
36.8063
36.8132
36.8197
36.826
36.832
36.8378
36.8433
36.8485
36.8534
36.8581
36.8625
36.8666
36.8704
36.8739
36.8771
36.8801
36.8827
36.8851
36.8872
36.8889
36.8904
36.8916
36.8925
36.8931
36.8934
50.1332
50.1294
50.1217
50.1105
50.096
50.0785
50.0581
50.0351
50.0095
49.9814
49.9509
49.9179
49.8825
49.8448
49.8046
49.762
49.7171
49.6698
49.6201
49.5681
49.5137
49.4571
49.3982
49.337
49.2737
49.2082
49.1405
49.0707
48.9989
48.925
48.8491
48.7712
48.6913
48.6096
48.5259
48.4404
48.3531
48.2641
48.1734
48.0809
47.9868
47.8912
47.794
47.6953
47.5951
47.4935
47.3906
47.2863
47.1808
47.074
46.9661
46.857
46.7468
46.6356
46.5233
46.4102
46.2961
46.1812
46.0654
45.9489
45.8317
45.7138
45.5953
45.4762
45.3566
45.2365
45.1159
44.995
44.8737
44.7521
44.6303
44.5082
44.386
44.2637
44.1413
44.0188
43.8964
43.774
43.6517
43.5295
43.4075
43.2857
43.1641
43.0428
42.9219
42.8013
42.6811
42.5614
42.4421
42.3234
42.2052
42.0875
41.9705
41.8541
41.7384
41.6234
41.5091
41.3956
41.2828
41.1709
41.0599
40.9497
40.8404
40.732
40.6246
40.5181
40.4127
40.3082
40.2048
40.1025
40.0012
39.901
39.8019
39.7039
39.6071
39.5114
39.4169
39.3236
39.2315
39.1406
39.0509
38.9625
38.8753
38.7894
38.7047
38.6213
38.5392
38.4583
38.3788
38.3005
38.2236
38.148
38.0736
38.0006
37.9289
37.8585
37.7895
37.7217
37.6553
37.5902
37.5264
37.4639
37.4027
37.3428
37.2842
37.227
37.171
37.1163
37.0629
37.0108
36.9599
36.9104
36.862
36.815
36.7691
36.7245
36.6812
36.639
36.5981
36.5583
36.5198
36.4824
36.4462
36.4111
36.3772
36.3444
36.3128
36.2822
36.2528
36.2244
36.1972
36.1709
36.1457
36.1216
36.0985
36.0764
36.0552
36.0351
36.0159
35.9977
35.9804
35.9641
35.9486
35.934
35.9204
35.9076
35.8956
35.8845
35.8742
35.8647
35.856
35.8481
35.8409
35.8345
35.8288
35.8238
35.8196
35.816
35.8131
35.8109
35.8093
35.8083
35.808
35.8082
35.809
35.8104
35.8124
35.8149
35.8179
35.8215
35.8255
35.8301
35.8351
35.8405
35.8464
35.8527
35.8595
35.8666
35.8742
35.8821
35.8903
35.899
35.9079
35.9172
35.9268
35.9367
35.9468
35.9573
35.968
35.9789
35.9901
36.0015
36.0131
36.0249
36.0369
36.0491
36.0615
36.074
36.0866
36.0994
36.1123
36.1253
36.1384
36.1516
36.1649
36.1782
36.1917
36.2051
36.2186
36.2321
36.2457
36.2593
36.2728
36.2864
36.2999
36.3135
36.3269
36.3404
36.3538
36.3671
36.3804
36.3936
36.4068
36.4198
36.4328
36.4456
36.4583
36.471
36.4835
36.4958
36.5081
36.5202
36.5321
36.5439
36.5555
36.567
36.5782
36.5894
36.6003
36.611
36.6215
36.6319
36.642
36.6519
36.6617
36.6712
36.6804
36.6895
36.6983
36.7069
36.7152
36.7233
36.7311
36.7387
36.7461
36.7532
36.76
36.7666
36.7729
36.7789
36.7847
36.7902
36.7954
36.8003
36.805
36.8094
36.8135
36.8173
36.8208
36.824
36.827
36.8296
36.832
36.834
36.8358
36.8373
36.8385
36.8394
36.84
36.8403
50.0928
50.0891
50.0815
50.0705
50.0562
50.0389
50.0186
49.9957
49.9702
49.9421
49.9115
49.8786
49.8431
49.8053
49.765
49.7223
49.6773
49.6298
49.58
49.5279
49.4734
49.4167
49.3577
49.2965
49.233
49.1674
49.0997
49.0298
48.9579
48.8839
48.8079
48.7299
48.6499
48.5681
48.4844
48.3988
48.3114
48.2223
48.1315
48.039
47.9448
47.8491
47.7518
47.653
47.5528
47.4511
47.3481
47.2438
47.1382
47.0313
46.9233
46.8141
46.7039
46.5926
46.4803
46.3671
46.2529
46.1379
46.0221
45.9055
45.7882
45.6703
45.5517
45.4326
45.3129
45.1927
45.0721
44.9511
44.8298
44.7082
44.5863
44.4642
44.3419
44.2195
44.0971
43.9746
43.8521
43.7296
43.6073
43.4851
43.363
43.2412
43.1196
42.9983
42.8773
42.7567
42.6365
42.5168
42.3975
42.2787
42.1605
42.0428
41.9258
41.8094
41.6936
41.5786
41.4643
41.3508
41.2381
41.1261
41.0151
40.9049
40.7956
40.6872
40.5798
40.4734
40.3679
40.2635
40.1601
40.0577
39.9565
39.8563
39.7572
39.6593
39.5625
39.4668
39.3724
39.2791
39.187
39.0961
39.0065
38.9181
38.831
38.7451
38.6604
38.5771
38.495
38.4142
38.3347
38.2565
38.1796
38.104
38.0298
37.9568
37.8852
37.8148
37.7458
37.6781
37.6117
37.5467
37.4829
37.4205
37.3594
37.2996
37.2411
37.1839
37.1279
37.0733
37.02
36.9679
36.9171
36.8676
36.8194
36.7724
36.7266
36.6821
36.6388
36.5967
36.5558
36.5162
36.4777
36.4404
36.4042
36.3693
36.3354
36.3027
36.2711
36.2407
36.2113
36.183
36.1558
36.1296
36.1045
36.0805
36.0574
36.0354
36.0143
35.9943
35.9752
35.957
35.9398
35.9235
35.9081
35.8936
35.88
35.8673
35.8554
35.8443
35.8341
35.8247
35.8161
35.8082
35.8011
35.7948
35.7891
35.7843
35.7801
35.7766
35.7737
35.7715
35.77
35.7691
35.7688
35.7691
35.77
35.7715
35.7735
35.7761
35.7792
35.7828
35.7869
35.7915
35.7965
35.802
35.808
35.8144
35.8212
35.8284
35.8359
35.8439
35.8522
35.8609
35.8699
35.8792
35.8889
35.8988
35.909
35.9195
35.9302
35.9412
35.9525
35.9639
35.9756
35.9874
35.9995
36.0117
36.0241
36.0366
36.0493
36.0621
36.0751
36.0881
36.1013
36.1145
36.1278
36.1412
36.1546
36.1681
36.1817
36.1952
36.2088
36.2224
36.236
36.2496
36.2632
36.2767
36.2902
36.3037
36.3171
36.3305
36.3438
36.3571
36.3702
36.3833
36.3963
36.4091
36.4219
36.4345
36.4471
36.4594
36.4717
36.4838
36.4958
36.5076
36.5192
36.5307
36.542
36.5531
36.5641
36.5748
36.5854
36.5957
36.6059
36.6158
36.6255
36.635
36.6443
36.6534
36.6622
36.6708
36.6791
36.6872
36.6951
36.7027
36.7101
36.7172
36.724
36.7306
36.7369
36.7429
36.7487
36.7542
36.7594
36.7644
36.769
36.7734
36.7775
36.7813
36.7849
36.7881
36.7911
36.7937
36.7961
36.7981
36.7999
36.8014
36.8026
36.8035
36.8041
36.8044
50.0352
50.0315
50.0239
50.0129
49.9986
49.9812
49.9609
49.9379
49.9123
49.8841
49.8534
49.8202
49.7846
49.7466
49.7062
49.6633
49.6181
49.5706
49.5206
49.4684
49.4138
49.3569
49.2978
49.2365
49.173
49.1073
49.0394
48.9695
48.8975
48.8234
48.7473
48.6693
48.5893
48.5073
48.4236
48.3379
48.2505
48.1613
48.0704
47.9778
47.8836
47.7878
47.6905
47.5917
47.4914
47.3897
47.2866
47.1822
47.0765
46.9696
46.8616
46.7524
46.6421
46.5307
46.4184
46.3051
46.1909
46.0759
45.96
45.8434
45.7261
45.6081
45.4895
45.3703
45.2506
45.1304
45.0098
44.8888
44.7674
44.6458
44.5239
44.4018
44.2795
44.1571
44.0346
43.9121
43.7896
43.6671
43.5448
43.4226
43.3005
43.1787
43.0571
42.9358
42.8148
42.6942
42.574
42.4543
42.335
42.2162
42.098
41.9804
41.8634
41.747
41.6313
41.5163
41.402
41.2885
41.1758
41.0639
40.9529
40.8428
40.7335
40.6252
40.5178
40.4114
40.306
40.2016
40.0983
39.996
39.8947
39.7946
39.6956
39.5977
39.501
39.4054
39.311
39.2177
39.1257
39.0349
38.9454
38.857
38.7699
38.6841
38.5996
38.5163
38.4343
38.3536
38.2741
38.196
38.1192
38.0437
37.9695
37.8966
37.8251
37.7548
37.6859
37.6183
37.552
37.487
37.4234
37.361
37.3
37.2403
37.1818
37.1247
37.0689
37.0144
36.9611
36.9092
36.8585
36.8091
36.7609
36.714
36.6683
36.6239
36.5807
36.5387
36.4979
36.4583
36.42
36.3827
36.3467
36.3118
36.2781
36.2455
36.214
36.1836
36.1543
36.1261
36.099
36.0729
36.0479
36.0239
36.001
35.979
35.9581
35.9381
35.9191
35.901
35.8839
35.8677
35.8524
35.838
35.8245
35.8118
35.8
35.7891
35.7789
35.7696
35.761
35.7532
35.7462
35.74
35.7344
35.7296
35.7255
35.7221
35.7193
35.7172
35.7157
35.7149
35.7147
35.7151
35.716
35.7176
35.7197
35.7223
35.7255
35.7291
35.7333
35.7379
35.7431
35.7486
35.7547
35.7611
35.768
35.7752
35.7829
35.7909
35.7993
35.808
35.817
35.8264
35.8361
35.8461
35.8564
35.8669
35.8777
35.8887
35.9
35.9115
35.9232
35.9351
35.9472
35.9595
35.9719
35.9845
35.9972
36.0101
36.0231
36.0362
36.0493
36.0626
36.076
36.0894
36.1029
36.1164
36.13
36.1436
36.1572
36.1708
36.1844
36.1981
36.2117
36.2252
36.2388
36.2523
36.2658
36.2792
36.2925
36.3057
36.3189
36.332
36.345
36.3579
36.3707
36.3834
36.3959
36.4083
36.4206
36.4327
36.4447
36.4565
36.4682
36.4797
36.491
36.5021
36.5131
36.5239
36.5344
36.5448
36.555
36.5649
36.5747
36.5842
36.5935
36.6025
36.6114
36.62
36.6283
36.6364
36.6443
36.6519
36.6593
36.6664
36.6733
36.6798
36.6862
36.6922
36.698
36.7035
36.7087
36.7137
36.7183
36.7227
36.7268
36.7307
36.7342
36.7374
36.7404
36.743
36.7454
36.7475
36.7493
36.7508
36.7519
36.7528
36.7534
36.7537
49.992
49.9884
49.981
49.9701
49.956
49.9387
49.9186
49.8957
49.8701
49.8419
49.8112
49.778
49.7423
49.7042
49.6637
49.6208
49.5755
49.5278
49.4777
49.4253
49.3706
49.3136
49.2544
49.193
49.1293
49.0635
48.9955
48.9255
48.8534
48.7792
48.703
48.6248
48.5447
48.4627
48.3788
48.293
48.2055
48.1162
48.0252
47.9325
47.8382
47.7423
47.6448
47.5459
47.4455
47.3437
47.2405
47.136
47.0302
46.9232
46.815
46.7057
46.5953
46.4839
46.3714
46.2581
46.1438
46.0286
45.9127
45.796
45.6786
45.5605
45.4418
45.3225
45.2027
45.0824
44.9617
44.8406
44.7192
44.5975
44.4755
44.3533
44.2309
44.1085
43.9859
43.8633
43.7407
43.6182
43.4958
43.3735
43.2514
43.1295
43.0079
42.8865
42.7655
42.6448
42.5246
42.4048
42.2855
42.1667
42.0484
41.9307
41.8137
41.6973
41.5815
41.4665
41.3522
41.2387
41.126
41.0141
40.903
40.7929
40.6836
40.5753
40.4679
40.3615
40.2561
40.1517
40.0483
39.9461
39.8448
39.7447
39.6457
39.5478
39.4511
39.3556
39.2612
39.168
39.076
38.9852
38.8957
38.8074
38.7203
38.6345
38.55
38.4668
38.3848
38.3042
38.2248
38.1467
38.07
37.9945
37.9204
37.8475
37.776
37.7059
37.637
37.5694
37.5032
37.4383
37.3747
37.3124
37.2515
37.1918
37.1335
37.0764
37.0207
36.9662
36.9131
36.8612
36.8106
36.7612
36.7131
36.6663
36.6207
36.5764
36.5332
36.4913
36.4507
36.4112
36.3729
36.3357
36.2998
36.265
36.2313
36.1988
36.1674
36.1371
36.1079
36.0798
36.0528
36.0268
36.0019
35.978
35.9551
35.9333
35.9124
35.8925
35.8736
35.8556
35.8386
35.8224
35.8072
35.7929
35.7795
35.7669
35.7552
35.7443
35.7343
35.725
35.7165
35.7088
35.7019
35.6957
35.6903
35.6855
35.6815
35.6782
35.6755
35.6735
35.6721
35.6713
35.6712
35.6717
35.6727
35.6743
35.6765
35.6792
35.6824
35.6862
35.6904
35.6951
35.7003
35.706
35.7121
35.7186
35.7255
35.7328
35.7405
35.7486
35.7571
35.7659
35.775
35.7844
35.7942
35.8042
35.8145
35.8251
35.836
35.8471
35.8584
35.87
35.8818
35.8937
35.9059
35.9182
35.9307
35.9433
35.9561
35.969
35.982
35.9952
36.0084
36.0217
36.0351
36.0486
36.0621
36.0757
36.0893
36.1029
36.1166
36.1303
36.1439
36.1576
36.1712
36.1848
36.1984
36.212
36.2255
36.2389
36.2523
36.2656
36.2788
36.2919
36.3049
36.3179
36.3307
36.3434
36.3559
36.3684
36.3807
36.3928
36.4048
36.4167
36.4284
36.4399
36.4512
36.4624
36.4734
36.4842
36.4948
36.5052
36.5153
36.5253
36.5351
36.5446
36.5539
36.563
36.5719
36.5805
36.5889
36.597
36.6049
36.6125
36.6199
36.627
36.6339
36.6405
36.6468
36.6528
36.6586
36.6642
36.6694
36.6744
36.679
36.6834
36.6875
36.6914
36.6949
36.6981
36.7011
36.7038
36.7061
36.7082
36.71
36.7115
36.7127
36.7136
36.7142
36.7145
49.9374
49.9338
49.9264
49.9157
49.9015
49.8844
49.8642
49.8413
49.8156
49.7874
49.7566
49.7233
49.6875
49.6492
49.6085
49.5655
49.52
49.4721
49.4219
49.3694
49.3146
49.2575
49.1981
49.1366
49.0728
49.0069
48.9388
48.8686
48.7964
48.7221
48.6458
48.5675
48.4873
48.4051
48.3211
48.2353
48.1476
48.0582
47.9671
47.8743
47.7799
47.6839
47.5863
47.4873
47.3868
47.2849
47.1816
47.077
46.9711
46.864
46.7558
46.6464
46.5359
46.4243
46.3118
46.1983
46.084
45.9687
45.8527
45.7359
45.6184
45.5003
45.3815
45.2621
45.1423
45.0219
44.9011
44.78
44.6584
44.5366
44.4146
44.2923
44.1699
44.0474
43.9248
43.8021
43.6795
43.5569
43.4345
43.3121
43.19
43.068
42.9463
42.8249
42.7039
42.5832
42.4629
42.3431
42.2238
42.1049
41.9866
41.8689
41.7519
41.6354
41.5197
41.4047
41.2904
41.1768
41.0641
40.9522
40.8412
40.731
40.6218
40.5134
40.4061
40.2997
40.1943
40.0899
39.9866
39.8843
39.7832
39.6831
39.5841
39.4863
39.3896
39.2941
39.1997
39.1066
39.0146
38.9239
38.8344
38.7462
38.6592
38.5734
38.489
38.4058
38.3239
38.2433
38.164
38.086
38.0093
37.9339
37.8599
37.7871
37.7157
37.6456
37.5768
37.5093
37.4432
37.3783
37.3148
37.2526
37.1918
37.1322
37.0739
37.017
36.9613
36.907
36.8539
36.8021
36.7516
36.7023
36.6544
36.6076
36.5621
36.5179
36.4749
36.4331
36.3925
36.3531
36.3149
36.2779
36.242
36.2073
36.1737
36.1413
36.11
36.0798
36.0508
36.0228
35.9958
35.97