/*--------------------------------*- C++ -*----------------------------------*\
| =========                 |                                                 |
| \\      /  F ield         | OpenFOAM: The Open Source CFD Toolbox           |
|  \\    /   O peration     | Version:  2212                                  |
|   \\  /    A nd           | Website:  www.openfoam.com                      |
|    \\/     M anipulation  |                                                 |
\*---------------------------------------------------------------------------*/
FoamFile
{
    version     2.0;
    format      ascii;
    arch        "LSB;label=32;scalar=64";
    class       volScalarField;
    location    "100";
    object      p_rgh_0;
}
// * * * * * * * * * * * * * * * * * * * * * * * * * * * * * * * * * * * * * //

dimensions      [1 -1 -2 0 0 0 0];

internalField   nonuniform List<scalar> 
204800
(
-11.4498
-11.4438
-11.4311
-11.4121
-11.3866
-11.3548
-11.3167
-11.2721
-11.2213
-11.1641
-11.1007
-11.0311
-10.9553
-10.8734
-10.7855
-10.6917
-10.592
-10.4865
-10.3752
-10.2582
-10.1356
-10.0075
-9.87391
-9.73498
-9.59077
-9.44136
-9.28683
-9.12729
-8.9628
-8.79346
-8.61936
-8.44059
-8.25723
-8.06937
-7.8771
-7.6805
-7.47967
-7.27468
-7.06564
-6.85262
-6.63571
-6.41502
-6.19063
-5.96262
-5.7311
-5.49616
-5.25788
-5.01638
-4.77173
-4.52405
-4.27342
-4.01994
-3.76371
-3.50484
-3.24341
-2.97953
-2.7133
-2.44481
-2.17417
-1.90147
-1.62682
-1.35032
-1.07206
-0.792136
-0.510656
-0.227715
0.0565894
0.342161
0.628904
0.916723
1.20552
1.49521
1.78569
2.07688
2.36868
2.661
2.95376
3.24687
3.54025
3.8338
4.12746
4.42114
4.71475
5.00823
5.30149
5.59447
5.88708
6.17927
6.47096
6.76208
7.05256
7.34236
7.6314
7.91962
8.20696
8.49338
8.77881
9.0632
9.3465
9.62867
9.90965
10.1894
10.4679
10.745
11.0208
11.2952
11.5682
11.8397
12.1097
12.3782
12.6451
12.9105
13.1742
13.4362
13.6966
13.9553
14.2123
14.4675
14.721
14.9727
15.2226
15.4707
15.717
15.9615
16.2041
16.4449
16.6838
16.9208
17.1559
17.3892
17.6206
17.85
18.0776
18.3032
18.527
18.7488
18.9687
19.1867
19.4028
19.617
19.8293
20.0396
20.2481
20.4547
20.6593
20.8621
21.063
21.262
21.4591
21.6544
21.8477
22.0393
22.229
22.4168
22.6028
22.787
22.9694
23.1499
23.3287
23.5057
23.6808
23.8543
24.0259
24.1958
24.364
24.5304
24.6952
24.8582
25.0195
25.1791
25.3371
25.4933
25.648
25.801
25.9523
26.1021
26.2502
26.3967
26.5417
26.685
26.8268
26.9671
27.1058
27.243
27.3787
27.5128
27.6455
27.7767
27.9064
28.0346
28.1614
28.2867
28.4107
28.5331
28.6542
28.7739
28.8922
29.0092
29.1247
29.2389
29.3518
29.4633
29.5735
29.6824
29.79
29.8963
30.0013
30.105
30.2075
30.3087
30.4086
30.5073
30.6048
30.7011
30.7962
30.89
30.9827
31.0742
31.1645
31.2536
31.3416
31.4284
31.5141
31.5987
31.6821
31.7644
31.8456
31.9257
32.0047
32.0827
32.1595
32.2353
32.31
32.3836
32.4562
32.5278
32.5983
32.6678
32.7363
32.8037
32.8702
32.9356
33.0001
33.0636
33.126
33.1875
33.2481
33.3077
33.3663
33.4239
33.4806
33.5364
33.5913
33.6452
33.6982
33.7502
33.8014
33.8516
33.901
33.9494
33.997
34.0436
34.0894
34.1343
34.1784
34.2215
34.2638
34.3053
34.3458
34.3856
34.4245
34.4625
34.4997
34.5361
34.5716
34.6063
34.6402
34.6732
34.7055
34.7369
34.7675
34.7973
34.8263
34.8545
34.882
34.9086
34.9344
34.9594
34.9837
35.0071
35.0298
35.0517
35.0728
35.0932
35.1128
35.1316
35.1496
35.1669
35.1834
35.1991
35.2141
35.2283
35.2418
35.2545
35.2665
35.2777
35.2881
35.2978
35.3068
35.315
35.3224
35.3291
35.3351
35.3403
35.3447
35.3485
35.3514
35.3537
35.3552
35.3559
-11.3987
-11.3926
-11.3802
-11.3616
-11.3368
-11.3057
-11.2684
-11.225
-11.1754
-11.1196
-11.0577
-10.9897
-10.9156
-10.8355
-10.7495
-10.6575
-10.5596
-10.4558
-10.3463
-10.2311
-10.1102
-9.98369
-9.85166
-9.71417
-9.57131
-9.42315
-9.26978
-9.11129
-8.94776
-8.77929
-8.60596
-8.42789
-8.24515
-8.05786
-7.86609
-7.66996
-7.46955
-7.26496
-7.05628
-6.84362
-6.62706
-6.4067
-6.18264
-5.95497
-5.72378
-5.48917
-5.25124
-5.01008
-4.76579
-4.51846
-4.2682
-4.01509
-3.75924
-3.50075
-3.23972
-2.97624
-2.71041
-2.44233
-2.17211
-1.89984
-1.62561
-1.34954
-1.07172
-0.792241
-0.51121
-0.228723
0.0551241
0.340234
0.62651
0.913859
1.20218
1.49139
1.7814
2.0721
2.36341
2.65524
2.94751
3.24012
3.533
3.82606
4.11921
4.41238
4.70549
4.99846
5.29121
5.58368
5.87578
6.16746
6.45863
6.74923
7.03921
7.32849
7.61701
7.90471
8.19154
8.47744
8.76236
9.04623
9.32902
9.61067
9.89114
10.1704
10.4483
10.725
11.0003
11.2742
11.5467
11.8177
12.0872
12.3551
12.6216
12.8864
13.1496
13.4111
13.671
13.9292
14.1857
14.4405
14.6935
14.9447
15.1941
15.4418
15.6876
15.9316
16.1738
16.4141
16.6525
16.8891
17.1237
17.3565
17.5875
17.8165
18.0436
18.2688
18.4921
18.7135
18.933
19.1506
19.3662
19.58
19.7918
20.0018
20.2098
20.416
20.6202
20.8226
21.0231
21.2217
21.4184
21.6133
21.8063
21.9974
22.1868
22.3742
22.5599
22.7437
22.9257
23.1059
23.2843
23.4609
23.6357
23.8088
23.9801
24.1496
24.3175
24.4836
24.648
24.8106
24.9716
25.1309
25.2886
25.4445
25.5988
25.7515
25.9026
26.052
26.1998
26.3461
26.4907
26.6338
26.7753
26.9153
27.0537
27.1906
27.326
27.4599
27.5923
27.7232
27.8526
27.9806
28.1071
28.2322
28.3559
28.4781
28.599
28.7184
28.8365
28.9531
29.0685
29.1824
29.2951
29.4064
29.5163
29.625
29.7324
29.8384
29.9432
30.0467
30.149
30.25
30.3497
30.4482
30.5455
30.6416
30.7365
30.8301
30.9226
31.0139
31.104
31.193
31.2808
31.3674
31.4529
31.5373
31.6206
31.7027
31.7837
31.8637
31.9425
32.0203
32.097
32.1726
32.2471
32.3206
32.3931
32.4645
32.5349
32.6042
32.6725
32.7399
32.8062
32.8715
32.9358
32.9991
33.0615
33.1229
33.1833
33.2427
33.3012
33.3588
33.4154
33.471
33.5258
33.5796
33.6324
33.6844
33.7354
33.7856
33.8348
33.8832
33.9306
33.9772
34.0229
34.0677
34.1116
34.1547
34.1969
34.2383
34.2788
34.3184
34.3572
34.3952
34.4323
34.4686
34.504
34.5387
34.5725
34.6055
34.6377
34.669
34.6996
34.7293
34.7583
34.7864
34.8138
34.8403
34.8661
34.8911
34.9153
34.9387
34.9613
34.9832
35.0043
35.0246
35.0441
35.0629
35.0809
35.0981
35.1146
35.1303
35.1452
35.1594
35.1729
35.1855
35.1975
35.2087
35.2191
35.2288
35.2377
35.2459
35.2533
35.26
35.2659
35.2711
35.2756
35.2793
35.2823
35.2845
35.286
35.2867
-11.3999
-11.3938
-11.3815
-11.363
-11.3382
-11.3073
-11.2702
-11.2269
-11.1775
-11.122
-11.0603
-10.9926
-10.9188
-10.839
-10.7533
-10.6616
-10.5641
-10.4607
-10.3515
-10.2366
-10.116
-9.98983
-9.8581
-9.72088
-9.57826
-9.43032
-9.27714
-9.1188
-8.9554
-8.78701
-8.61374
-8.43569
-8.25294
-8.0656
-7.87377
-7.67754
-7.47701
-7.27228
-7.06345
-6.85063
-6.63389
-6.41335
-6.1891
-5.96124
-5.72986
-5.49507
-5.25695
-5.0156
-4.77113
-4.52362
-4.27318
-4.01991
-3.76389
-3.50524
-3.24405
-2.98041
-2.71444
-2.44621
-2.17585
-1.90344
-1.62909
-1.35289
-1.07494
-0.795348
-0.514202
-0.231605
0.0523481
0.337559
0.623933
0.911375
1.19979
1.48908
1.77917
2.06994
2.36133
2.65323
2.94556
3.23823
3.53117
3.82428
4.11748
4.41069
4.70384
4.99684
5.28963
5.58212
5.87425
6.16595
6.45714
6.74776
7.03774
7.32703
7.61555
7.90326
8.19009
8.47598
8.76089
9.04475
9.32753
9.60916
9.88961
10.1688
10.4468
10.7234
10.9986
11.2725
11.5449
11.8159
12.0854
12.3533
12.6197
12.8845
13.1476
13.4091
13.669
13.9271
14.1835
14.4382
14.6912
14.9423
15.1917
15.4393
15.6851
15.929
16.1711
16.4113
16.6497
16.8862
17.1208
17.3535
17.5843
17.8133
18.0403
18.2655
18.4887
18.71
18.9294
19.1469
19.3625
19.5762
19.788
19.9978
20.2058
20.4119
20.616
20.8183
21.0187
21.2173
21.4139
21.6087
21.8016
21.9927
22.1819
22.3693
22.5548
22.7386
22.9205
23.1006
23.2789
23.4554
23.6302
23.8032
23.9744
24.1439
24.3117
24.4777
24.642
24.8046
24.9655
25.1247
25.2823
25.4382
25.5924
25.745
25.896
26.0453
26.1931
26.3392
26.4838
26.6268
26.7683
26.9082
27.0465
27.1833
27.3187
27.4525
27.5848
27.7156
27.845
27.9729
28.0994
28.2244
28.348
28.4702
28.5909
28.7103
28.8283
28.9449
29.0602
29.1741
29.2867
29.3979
29.5078
29.6164
29.7237
29.8297
29.9345
30.0379
30.1401
30.241
30.3407
30.4392
30.5364
30.6324
30.7272
30.8209
30.9133
31.0045
31.0946
31.1835
31.2712
31.3578
31.4433
31.5276
31.6108
31.6929
31.7739
31.8538
31.9326
32.0103
32.087
32.1625
32.2371
32.3105
32.3829
32.4543
32.5246
32.5939
32.6622
32.7295
32.7958
32.8611
32.9254
32.9886
33.051
33.1123
33.1727
33.2321
33.2906
33.3481
33.4046
33.4603
33.515
33.5687
33.6216
33.6735
33.7245
33.7746
33.8238
33.8722
33.9196
33.9661
34.0118
34.0566
34.1005
34.1435
34.1857
34.2271
34.2675
34.3072
34.3459
34.3839
34.421
34.4572
34.4927
34.5273
34.5611
34.5941
34.6262
34.6576
34.6881
34.7178
34.7468
34.7749
34.8022
34.8288
34.8545
34.8795
34.9037
34.9271
34.9497
34.9715
34.9926
35.0129
35.0324
35.0512
35.0692
35.0864
35.1029
35.1186
35.1335
35.1477
35.1611
35.1738
35.1857
35.1969
35.2073
35.217
35.2259
35.2341
35.2415
35.2482
35.2541
35.2593
35.2638
35.2675
35.2705
35.2727
35.2742
35.2749
-11.3643
-11.3582
-11.3461
-11.328
-11.3038
-11.2735
-11.2372
-11.1948
-11.1464
-11.092
-11.0316
-10.9653
-10.8929
-10.8147
-10.7305
-10.6404
-10.5445
-10.4427
-10.3352
-10.2219
-10.1029
-9.97823
-9.84798
-9.71219
-9.57092
-9.42425
-9.27225
-9.11499
-8.95257
-8.78506
-8.61258
-8.43521
-8.25305
-8.06621
-7.87479
-7.6789
-7.47865
-7.27413
-7.06547
-6.85276
-6.63611
-6.41563
-6.19142
-5.96359
-5.73223
-5.49744
-5.25933
-5.018
-4.77355
-4.52606
-4.27565
-4.02242
-3.76645
-3.50785
-3.24672
-2.98316
-2.71727
-2.44914
-2.17887
-1.90657
-1.63233
-1.35626
-1.07844
-0.798991
-0.517995
-0.235554
0.0482333
0.333272
0.619466
0.906719
1.19494
1.48403
1.7739
2.06446
2.35563
2.6473
2.93939
3.23182
3.52451
3.81736
4.1103
4.40325
4.69613
4.98885
5.28136
5.57356
5.8654
6.15679
6.44768
6.73799
7.02767
7.31663
7.60484
7.89222
8.17872
8.46428
8.74885
9.03238
9.31481
9.5961
9.8762
10.1551
10.4327
10.7089
10.9838
11.2573
11.5294
11.8
12.0691
12.3367
12.6027
12.8671
13.1299
13.391
13.6505
13.9082
14.1643
14.4186
14.6712
14.922
15.171
15.4182
15.6636
15.9071
16.1488
16.3887
16.6267
16.8628
17.0971
17.3294
17.5599
17.7885
18.0151
18.2399
18.4628
18.6837
18.9028
19.1199
19.3351
19.5484
19.7599
19.9694
20.177
20.3827
20.5865
20.7885
20.9885
21.1867
21.383
21.5774
21.77
21.9608
22.1496
22.3367
22.5219
22.7053
22.8869
23.0667
23.2447
23.4209
23.5953
23.768
23.9389
24.1081
24.2755
24.4413
24.6053
24.7676
24.9282
25.0871
25.2444
25.4
25.5539
25.7062
25.8569
26.006
26.1535
26.2993
26.4436
26.5864
26.7275
26.8672
27.0053
27.1418
27.2769
27.4104
27.5425
27.6731
27.8022
27.9299
28.0561
28.1809
28.3042
28.4262
28.5467
28.6659
28.7836
28.9
29.0151
29.1288
29.2411
29.3521
29.4618
29.5702
29.6773
29.7831
29.8876
29.9909
30.0929
30.1936
30.2931
30.3914
30.4884
30.5842
30.6789
30.7723
30.8645
30.9556
31.0455
31.1342
31.2218
31.3082
31.3935
31.4777
31.5607
31.6426
31.7235
31.8032
31.8818
31.9594
32.0359
32.1113
32.1857
32.259
32.3313
32.4025
32.4727
32.5419
32.61
32.6772
32.7433
32.8084
32.8726
32.9358
32.998
33.0592
33.1194
33.1787
33.2371
33.2945
33.3509
33.4064
33.461
33.5147
33.5674
33.6193
33.6702
33.7202
33.7693
33.8175
33.8649
33.9113
33.9569
34.0016
34.0454
34.0884
34.1305
34.1717
34.2121
34.2517
34.2904
34.3282
34.3653
34.4015
34.4368
34.4714
34.5051
34.538
34.5701
34.6014
34.6319
34.6615
34.6904
34.7185
34.7458
34.7722
34.7979
34.8229
34.847
34.8703
34.8929
34.9147
34.9357
34.956
34.9755
34.9942
35.0122
35.0294
35.0458
35.0615
35.0764
35.0905
35.1039
35.1166
35.1285
35.1396
35.15
35.1597
35.1686
35.1768
35.1842
35.1908
35.1968
35.202
35.2064
35.2101
35.2131
35.2153
35.2168
35.2175
-11.3604
-11.3544
-11.3424
-11.3244
-11.3004
-11.2703
-11.2343
-11.1923
-11.1443
-11.0904
-11.0305
-10.9646
-10.8929
-10.8152
-10.7317
-10.6423
-10.5471
-10.4462
-10.3394
-10.2269
-10.1087
-9.98493
-9.85551
-9.72054
-9.58008
-9.43418
-9.28291
-9.12635
-8.96456
-8.79764
-8.62565
-8.44871
-8.26691
-8.08034
-7.88911
-7.69333
-7.4931
-7.28855
-7.07979
-6.86692
-6.65006
-6.42932
-6.20482
-5.97666
-5.74496
-5.50982
-5.27134
-5.02963
-4.7848
-4.53694
-4.28616
-4.03255
-3.77622
-3.51727
-3.25579
-2.99189
-2.72566
-2.45721
-2.18663
-1.91402
-1.63948
-1.36311
-1.08502
-0.805287
-0.524024
-0.241326
0.0427124
0.327993
0.61442
0.901899
1.19034
1.47964
1.76971
2.06046
2.35181
2.64366
2.93592
3.22851
3.52135
3.81434
4.10742
4.40049
4.69349
4.98633
5.27894
5.57124
5.86317
6.15465
6.44561
6.73599
7.02572
7.31475
7.603
7.89042
8.17696
8.46255
8.74714
9.03068
9.31312
9.59442
9.87452
10.1534
10.4309
10.7072
10.9821
11.2556
11.5276
11.7982
12.0672
12.3347
12.6007
12.865
13.1278
13.3888
13.6482
13.9059
14.1619
14.4162
14.6686
14.9193
15.1683
15.4154
15.6607
15.9041
16.1457
16.3855
16.6234
16.8594
17.0935
17.3258
17.5561
17.7846
18.0111
18.2358
18.4585
18.6793
18.8983
19.1153
19.3304
19.5436
19.7549
19.9642
20.1717
20.3773
20.581
20.7828
20.9827
21.1808
21.3769
21.5712
21.7637
21.9543
22.143
22.3299
22.515
22.6983
22.8797
23.0594
23.2373
23.4133
23.5876
23.7602
23.931
24.1
24.2673
24.4329
24.5967
24.7589
24.9194
25.0782
25.2353
25.3908
25.5446
25.6968
25.8473
25.9963
26.1436
26.2894
26.4335
26.5762
26.7172
26.8567
26.9947
27.1311
27.2661
27.3995
27.5314
27.6619
27.7909
27.9184
28.0445
28.1692
28.2924
28.4143
28.5347
28.6537
28.7714
28.8877
29.0026
29.1162
29.2284
29.3393
29.4489
29.5572
29.6642
29.7699
29.8743
29.9775
30.0793
30.18
30.2794
30.3775
30.4745
30.5702
30.6648
30.7581
30.8502
30.9412
31.031
31.1196
31.2071
31.2935
31.3787
31.4628
31.5457
31.6276
31.7083
31.788
31.8665
31.944
32.0204
32.0958
32.1701
32.2433
32.3155
32.3867
32.4568
32.5259
32.594
32.6611
32.7271
32.7922
32.8563
32.9194
32.9815
33.0427
33.1029
33.1621
33.2204
33.2777
33.3341
33.3896
33.4441
33.4977
33.5504
33.6022
33.6531
33.703
33.7521
33.8003
33.8476
33.894
33.9395
33.9841
34.0279
34.0708
34.1129
34.1541
34.1945
34.234
34.2726
34.3105
34.3474
34.3836
34.4189
34.4534
34.4871
34.52
34.5521
34.5833
34.6138
34.6434
34.6723
34.7003
34.7276
34.754
34.7797
34.8046
34.8287
34.852
34.8746
34.8964
34.9174
34.9376
34.9571
34.9758
34.9937
35.0109
35.0273
35.0429
35.0578
35.072
35.0854
35.098
35.1099
35.121
35.1314
35.1411
35.15
35.1581
35.1655
35.1722
35.1781
35.1833
35.1877
35.1914
35.1944
35.1966
35.1981
35.1988
-11.3292
-11.3234
-11.3116
-11.2939
-11.2703
-11.2409
-11.2056
-11.1644
-11.1173
-11.0644
-11.0056
-10.941
-10.8706
-10.7944
-10.7123
-10.6245
-10.5309
-10.4315
-10.3264
-10.2156
-10.0991
-9.97703
-9.84931
-9.71602
-9.5772
-9.4329
-9.28318
-9.12809
-8.9677
-8.80208
-8.63131
-8.45547
-8.27465
-8.08894
-7.89846
-7.7033
-7.50359
-7.29943
-7.09095
-6.87826
-6.6615
-6.44078
-6.21623
-5.98796
-5.7561
-5.52076
-5.28207
-5.04012
-4.79503
-4.54692
-4.29587
-4.04201
-3.78543
-3.52623
-3.26452
-3.00039
-2.73395
-2.46529
-2.19451
-1.92173
-1.64702
-1.37049
-1.09225
-0.812388
-0.531002
-0.248191
0.035948
0.321318
0.607824
0.89537
1.18386
1.47321
1.76332
2.0541
2.34545
2.6373
2.92956
3.22213
3.51494
3.8079
4.10093
4.39395
4.68688
4.97964
5.27216
5.56437
5.8562
6.14756
6.4384
6.72866
7.01825
7.30713
7.59523
7.88249
8.16886
8.45427
8.73868
9.02204
9.30428
9.58537
9.86526
10.1439
10.4213
10.6973
10.9719
11.2452
11.517
11.7873
12.0561
12.3233
12.589
12.8531
13.1156
13.3764
13.6355
13.8929
14.1486
14.4026
14.6548
14.9052
15.1538
15.4006
15.6456
15.8887
16.1301
16.3695
16.6071
16.8428
17.0766
17.3085
17.5386
17.7667
17.993
18.2173
18.4397
18.6602
18.8788
19.0955
19.3103
19.5232
19.7342
19.9432
20.1504
20.3557
20.559
20.7605
20.9601
21.1579
21.3537
21.5477
21.7399
21.9301
22.1186
22.3052
22.49
22.6729
22.8541
23.0334
23.211
23.3868
23.5608
23.733
23.9035
24.0722
24.2392
24.4045
24.5681
24.73
24.8902
25.0487
25.2055
25.3607
25.5143
25.6662
25.8165
25.9651
26.1122
26.2577
26.4016
26.5439
26.6847
26.824
26.9617
27.0979
27.2326
27.3657
27.4974
27.6276
27.7564
27.8837
28.0096
28.134
28.257
28.3786
28.4988
28.6176
28.735
28.8511
28.9658
29.0792
29.1912
29.3019
29.4112
29.5193
29.6261
29.7316
29.8358
29.9388
30.0404
30.1409
30.2401
30.3381
30.4348
30.5304
30.6247
30.7179
30.8098
30.9006
30.9902
31.0787
31.166
31.2522
31.3372
31.4211
31.5039
31.5856
31.6662
31.7457
31.8241
31.9015
31.9777
32.0529
32.127
32.2001
32.2722
32.3432
32.4132
32.4822
32.5501
32.617
32.683
32.7479
32.8119
32.8749
32.9369
32.9979
33.058
33.1171
33.1753
33.2325
33.2888
33.3441
33.3986
33.4521
33.5047
33.5563
33.6071
33.657
33.7059
33.754
33.8012
33.8475
33.8929
33.9375
33.9812
34.024
34.066
34.1071
34.1474
34.1868
34.2254
34.2632
34.3001
34.3362
34.3714
34.4059
34.4395
34.4723
34.5043
34.5355
34.5659
34.5955
34.6242
34.6522
34.6794
34.7058
34.7315
34.7563
34.7804
34.8037
34.8262
34.8479
34.8689
34.8891
34.9085
34.9272
34.9451
34.9622
34.9786
34.9942
35.0091
35.0232
35.0365
35.0492
35.061
35.0721
35.0825
35.0921
35.101
35.1092
35.1165
35.1232
35.1291
35.1343
35.1387
35.1424
35.1454
35.1476
35.149
35.1498
-11.3171
-11.3112
-11.2996
-11.2821
-11.2588
-11.2296
-11.1947
-11.1539
-11.1074
-11.055
-10.9969
-10.933
-10.8633
-10.7879
-10.7067
-10.6198
-10.5272
-10.4289
-10.3249
-10.2153
-10.1
-9.97915
-9.85271
-9.72073
-9.58323
-9.44026
-9.29186
-9.13808
-8.97896
-8.81457
-8.64496
-8.47021
-8.2904
-8.10561
-7.91593
-7.72146
-7.52231
-7.3186
-7.11043
-6.89794
-6.68125
-6.4605
-6.23581
-6.00732
-5.77515
-5.53944
-5.30031
-5.05789
-4.8123
-4.56366
-4.31207
-4.05765
-3.80052
-3.54076
-3.2785
-3.01383
-2.74686
-2.47768
-2.2064
-1.93311
-1.65791
-1.38091
-1.1022
-0.821889
-0.540062
-0.256823
0.0277313
0.313505
0.600402
0.888327
1.17719
1.46689
1.75734
2.04845
2.34012
2.63228
2.92483
3.21768
3.51076
3.80398
4.09725
4.3905
4.68366
4.97663
5.26935
5.56175
5.85375
6.14528
6.43628
6.72668
7.01641
7.30541
7.59362
7.88099
8.16745
8.45294
8.73743
9.02085
9.30315
9.58428
9.86421
10.1429
10.4203
10.6963
10.9709
11.2442
11.516
11.7863
12.055
12.3223
12.5879
12.852
13.1144
13.3751
13.6342
13.8915
14.1471
14.401
14.6531
14.9034
15.1519
15.3987
15.6435
15.8866
16.1278
16.3671
16.6046
16.8401
17.0738
17.3056
17.5355
17.7635
17.9896
18.2138
18.4361
18.6564
18.8749
19.0914
19.3061
19.5188
19.7296
19.9385
20.1455
20.3506
20.5538
20.7551
20.9545
21.1521
21.3478
21.5416
21.7336
21.9237
22.1119
22.2984
22.483
22.6657
22.8467
23.0259
23.2033
23.3789
23.5527
23.7247
23.8951
24.0636
24.2305
24.3956
24.559
24.7207
24.8807
25.039
25.1957
25.3507
25.5041
25.6558
25.8059
25.9544
26.1013
26.2466
26.3904
26.5325
26.6732
26.8122
26.9498
27.0858
27.2203
27.3533
27.4849
27.6149
27.7435
27.8707
27.9964
28.1206
28.2435
28.3649
28.485
28.6036
28.7209
28.8368
28.9514
29.0646
29.1765
29.287
29.3963
29.5042
29.6108
29.7162
29.8202
29.9231
30.0246
30.1249
30.224
30.3218
30.4185
30.5139
30.6081
30.7011
30.793
30.8836
30.9731
31.0615
31.1487
31.2347
31.3197
31.4035
31.4861
31.5677
31.6482
31.7276
31.8059
31.8831
31.9593
32.0344
32.1084
32.1814
32.2533
32.3243
32.3941
32.463
32.5309
32.5977
32.6636
32.7284
32.7923
32.8552
32.9171
32.9781
33.0381
33.0971
33.1552
33.2124
33.2686
33.3238
33.3782
33.4316
33.4841
33.5357
33.5864
33.6362
33.6851
33.7331
33.7802
33.8265
33.8719
33.9164
33.96
34.0028
34.0447
34.0858
34.126
34.1654
34.2039
34.2416
34.2785
34.3145
34.3497
34.3841
34.4177
34.4504
34.4824
34.5135
34.5439
34.5734
34.6022
34.6301
34.6573
34.6837
34.7093
34.7341
34.7581
34.7813
34.8038
34.8255
34.8465
34.8666
34.886
34.9047
34.9225
34.9397
34.956
34.9716
34.9865
35.0006
35.0139
35.0265
35.0384
35.0495
35.0598
35.0694
35.0783
35.0864
35.0938
35.1004
35.1064
35.1115
35.1159
35.1196
35.1226
35.1248
35.1263
35.127
-11.2849
-11.2791
-11.2677
-11.2505
-11.2276
-11.199
-11.1647
-11.1247
-11.0789
-11.0275
-10.9704
-10.9076
-10.8391
-10.765
-10.6852
-10.5997
-10.5086
-10.4119
-10.3095
-10.2016
-10.0881
-9.96898
-9.84434
-9.71419
-9.57855
-9.43744
-9.29089
-9.13895
-8.98164
-8.81902
-8.65113
-8.47803
-8.29979
-8.11647
-7.92815
-7.73493
-7.53689
-7.33414
-7.1268
-6.91499
-6.69883
-6.47845
-6.254
-6.02561
-5.79343
-5.5576
-5.31826
-5.07555
-4.8296
-4.58055
-4.32852
-4.07364
-3.81601
-3.55577
-3.29302
-3.02786
-2.7604
-2.49075
-2.219
-1.94526
-1.66963
-1.39221
-1.11309
-0.832384
-0.550179
-0.266577
0.0183267
0.304434
0.591651
0.87988
1.16903
1.45901
1.74972
2.04107
2.33298
2.62535
2.9181
3.21115
3.5044
3.79778
4.0912
4.38459
4.67786
4.97094
5.26376
5.55623
5.8483
6.13989
6.43093
6.72136
7.01111
7.30012
7.58832
7.87567
8.1621
8.44756
8.732
9.01536
9.29759
9.57865
9.85849
10.1371
10.4143
10.6902
10.9648
11.2379
11.5095
11.7797
12.0483
12.3153
12.5808
12.8447
13.1069
13.3674
13.6263
13.8834
14.1389
14.3925
14.6444
14.8945
15.1428
15.3893
15.6339
15.8767
16.1176
16.3567
16.5939
16.8292
17.0627
17.2942
17.5238
17.7515
17.9774
18.2013
18.4233
18.6433
18.8615
19.0778
19.2921
19.5045
19.7151
19.9237
20.1304
20.3352
20.5381
20.7391
20.9383
21.1355
21.3309
21.5244
21.7161
21.9059
22.0939
22.28
22.4643
22.6468
22.8275
23.0064
23.1834
23.3587
23.5323
23.7041
23.8741
24.0423
24.2089
24.3737
24.5368
24.6983
24.858
25.016
25.1724
25.3272
25.4803
25.6317
25.7816
25.9298
26.0764
26.2215
26.3649
26.5068
26.6472
26.786
26.9233
27.0591
27.1933
27.3261
27.4574
27.5872
27.7155
27.8424
27.9679
28.0919
28.2145
28.3357
28.4555
28.574
28.691
28.8067
28.921
29.034
29.1457
29.256
29.365
29.4727
29.5792
29.6843
29.7882
29.8908
29.9921
30.0922
30.1911
30.2888
30.3852
30.4804
30.5744
30.6673
30.7589
30.8494
30.9387
31.0269
31.1139
31.1998
31.2845
31.3682
31.4507
31.5321
31.6124
31.6916
31.7698
31.8468
31.9228
31.9978
32.0717
32.1445
32.2163
32.2871
32.3568
32.4256
32.4933
32.56
32.6257
32.6904
32.7542
32.8169
32.8787
32.9396
32.9994
33.0583
33.1163
33.1733
33.2294
33.2846
33.3388
33.3921
33.4445
33.496
33.5466
33.5963
33.6451
33.693
33.7401
33.7862
33.8315
33.8759
33.9194
33.9621
34.004
34.0449
34.0851
34.1244
34.1628
34.2004
34.2372
34.2732
34.3083
34.3427
34.3762
34.4089
34.4408
34.4718
34.5021
34.5316
34.5603
34.5882
34.6153
34.6416
34.6672
34.6919
34.7159
34.7391
34.7615
34.7832
34.8041
34.8242
34.8436
34.8622
34.88
34.8971
34.9134
34.929
34.9438
34.9579
34.9712
34.9838
34.9956
35.0067
35.017
35.0266
35.0354
35.0435
35.0509
35.0575
35.0634
35.0686
35.073
35.0767
35.0796
35.0818
35.0833
35.084
-11.2637
-11.2581
-11.2468
-11.2298
-11.2072
-11.1789
-11.145
-11.1054
-11.0602
-11.0094
-10.953
-10.8909
-10.8233
-10.75
-10.6712
-10.5867
-10.4967
-10.4011
-10.3
-10.1934
-10.0812
-9.96354
-9.84039
-9.71177
-9.5777
-9.43821
-9.29332
-9.14306
-8.98744
-8.82652
-8.66032
-8.48888
-8.31226
-8.13051
-7.94369
-7.75188
-7.55515
-7.35359
-7.1473
-6.9364
-6.72099
-6.50121
-6.27718
-6.04906
-5.81699
-5.58112
-5.34161
-5.0986
-4.85225
-4.60271
-4.35012
-4.09461
-3.83633
-3.57539
-3.31193
-3.04606
-2.77788
-2.50751
-2.23505
-1.96062
-1.6843
-1.40621
-1.12643
-0.84508
-0.562248
-0.278033
0.00746597
0.294153
0.581933
0.87071
1.16039
1.45088
1.74209
2.03393
2.3263
2.61912
2.91231
3.20577
3.49943
3.79319
4.08698
4.38072
4.67434
4.96774
5.26087
5.55364
5.84598
6.13784
6.42913
6.71979
7.00976
7.29897
7.58738
7.8749
8.1615
8.44711
8.73169
9.01517
9.29752
9.57868
9.85861
10.1373
10.4146
10.6906
10.9651
11.2383
11.51
11.7801
12.0487
12.3158
12.5813
12.8451
13.1073
13.3678
13.6266
13.8837
14.139
14.3926
14.6444
14.8944
15.1426
15.389
15.6335
15.8762
16.117
16.356
16.593
16.8282
17.0615
17.2929
17.5224
17.75
17.9756
18.1994
18.4212
18.6411
18.8591
19.0752
19.2893
19.5016
19.7119
19.9203
20.1268
20.3315
20.5342
20.735
20.9339
21.131
21.3262
21.5195
21.711
21.9006
22.0883
22.2743
22.4584
22.6406
22.8211
22.9998
23.1766
23.3517
23.5251
23.6966
23.8664
24.0345
24.2008
24.3654
24.5283
24.6895
24.8491
25.0069
25.1631
25.3176
25.4705
25.6217
25.7714
25.9194
26.0658
26.2107
26.3539
26.4956
26.6358
26.7744
26.9115
27.047
27.1811
27.3137
27.4448
27.5744
27.7025
27.8292
27.9545
28.0783
28.2008
28.3218
28.4414
28.5596
28.6765
28.792
28.9062
29.019
29.1304
29.2406
29.3495
29.457
29.5633
29.6682
29.7719
29.8744
29.9756
30.0755
30.1742
30.2717
30.368
30.463
30.5569
30.6496
30.7411
30.8314
30.9206
31.0086
31.0955
31.1812
31.2658
31.3493
31.4317
31.513
31.5932
31.6723
31.7503
31.8272
31.9031
31.9779
32.0516
32.1244
32.196
32.2667
32.3363
32.4049
32.4726
32.5392
32.6048
32.6694
32.733
32.7957
32.8574
32.9181
32.9779
33.0367
33.0945
33.1515
33.2075
33.2625
33.3167
33.3699
33.4222
33.4736
33.5241
33.5737
33.6225
33.6703
33.7172
33.7633
33.8085
33.8529
33.8963
33.9389
33.9807
34.0216
34.0617
34.1009
34.1393
34.1769
34.2136
34.2495
34.2846
34.3188
34.3523
34.3849
34.4168
34.4478
34.478
34.5075
34.5361
34.5639
34.591
34.6173
34.6428
34.6675
34.6914
34.7146
34.737
34.7586
34.7795
34.7996
34.8189
34.8375
34.8553
34.8723
34.8886
34.9042
34.919
34.933
34.9463
34.9589
34.9707
34.9817
34.992
35.0016
35.0105
35.0185
35.0259
35.0325
35.0384
35.0435
35.048
35.0516
35.0546
35.0568
35.0582
35.059
-11.2279
-11.2223
-11.2112
-11.1945
-11.1722
-11.1444
-11.1111
-11.0722
-11.0277
-10.9777
-10.9222
-10.8611
-10.7946
-10.7225
-10.6448
-10.5617
-10.4731
-10.379
-10.2794
-10.1743
-10.0638
-9.94787
-9.82648
-9.69967
-9.56747
-9.42988
-9.28692
-9.13862
-8.98499
-8.82607
-8.66187
-8.49243
-8.31778
-8.13797
-7.95305
-7.76307
-7.56809
-7.36819
-7.16345
-6.95395
-6.73981
-6.52113
-6.29803
-6.07067
-5.83917
-5.60369
-5.36439
-5.12143
-4.87497
-4.62519
-4.37224
-4.11628
-3.85747
-3.59594
-3.33184
-3.06529
-2.79643
-2.52536
-2.25221
-1.97709
-1.70009
-1.42133
-1.1409
-0.858909
-0.575456
-0.290639
-0.00455481
0.282699
0.571027
0.860333
1.15052
1.44151
1.73319
2.02548
2.31829
2.61154
2.90512
3.19897
3.49299
3.7871
4.08122
4.37527
4.66918
4.96286
5.25624
5.54926
5.84183
6.13389
6.42538
6.71622
7.00635
7.29571
7.58424
7.87189
8.15859
8.44429
8.72893
9.01248
9.29487
9.57606
9.85601
10.1347
10.412
10.6879
10.9625
11.2356
11.5072
11.7773
12.0458
12.3128
12.5782
12.8419
13.104
13.3644
13.623
13.88
14.1352
14.3886
14.6402
14.8901
15.1381
15.3843
15.6286
15.8711
16.1117
16.3505
16.5873
16.8223
17.0553
17.2865
17.5157
17.7431
17.9685
18.192
18.4135
18.6332
18.8509
19.0667
19.2806
19.4926
19.7027
19.9108
20.1171
20.3214
20.5238
20.7244
20.923
21.1198
21.3147
21.5078
21.6989
21.8882
22.0757
22.2613
22.4452
22.6271
22.8073
22.9857
23.1623
23.3371
23.5101
23.6814
23.8509
24.0187
24.1847
24.349
24.5117
24.6726
24.8318
24.9894
25.1453
25.2995
25.4521
25.6031
25.7524
25.9002
26.0463
26.1909
26.3339
26.4753
26.6152
26.7535
26.8904
27.0257
27.1595
27.2918
27.4226
27.5519
27.6798
27.8063
27.9313
28.0549
28.1771
28.2978
28.4172
28.5352
28.6518
28.7671
28.881
28.9936
29.1048
29.2148
29.3234
29.4307
29.5367
29.6415
29.745
29.8472
29.9482
30.0479
30.1464
30.2437
30.3398
30.4346
30.5283
30.6208
30.7121
30.8022
30.8912
30.979
31.0657
31.1513
31.2357
31.319
31.4012
31.4823
31.5623
31.6412
31.7191
31.7959
31.8716
31.9462
32.0198
32.0924
32.1639
32.2344
32.3039
32.3723
32.4398
32.5063
32.5717
32.6362
32.6997
32.7622
32.8238
32.8844
32.944
33.0027
33.0604
33.1172
33.1731
33.2281
33.2821
33.3352
33.3874
33.4387
33.4891
33.5386
33.5872
33.6349
33.6818
33.7277
33.7728
33.8171
33.8605
33.903
33.9447
33.9855
34.0255
34.0646
34.1029
34.1404
34.177
34.2129
34.2479
34.282
34.3154
34.348
34.3798
34.4107
34.4409
34.4703
34.4988
34.5266
34.5536
34.5799
34.6053
34.63
34.6538
34.677
34.6993
34.7209
34.7417
34.7617
34.781
34.7996
34.8173
34.8344
34.8506
34.8661
34.8809
34.8949
34.9082
34.9207
34.9325
34.9435
34.9538
34.9634
34.9722
34.9803
34.9876
34.9942
35.0001
35.0052
35.0096
35.0133
35.0162
35.0184
35.0199
35.0206
-11.198
-11.1925
-11.1815
-11.165
-11.143
-11.1155
-11.0826
-11.0442
-11.0003
-10.9509
-10.896
-10.8357
-10.77
-10.6988
-10.6221
-10.54
-10.4525
-10.3595
-10.2612
-10.1574
-10.0483
-9.93374
-9.81385
-9.6886
-9.55802
-9.42211
-9.28089
-9.13437
-8.98258
-8.82552
-8.66323
-8.49571
-8.32301
-8.14515
-7.96217
-7.7741
-7.581
-7.38292
-7.17992
-6.97208
-6.75947
-6.54219
-6.32035
-6.09406
-5.86346
-5.62868
-5.38989
-5.14724
-4.90091
-4.65106
-4.39788
-4.14154
-3.88222
-3.62007
-3.35527
-3.08796
-2.81829
-2.54638
-2.27237
-1.99637
-1.7185
-1.43888
-1.1576
-0.874771
-0.590496
-0.304875
-0.0180059
0.270014
0.559087
0.84912
1.14002
1.43169
1.72403
2.01697
2.31041
2.60425
2.89843
3.19283
3.4874
3.78203
4.07666
4.3712
4.66557
4.9597
5.25351
5.54693
5.83989
6.13233
6.42416
6.71534
7.00579
7.29545
7.58426
7.87217
8.15912
8.44505
8.72991
9.01366
9.29623
9.57759
9.85769
10.1365
10.4139
10.69
10.9646
11.2378
11.5095
11.7797
12.0482
12.3153
12.5806
12.8444
13.1064
13.3668
13.6255
13.8824
14.1375
14.3909
14.6425
14.8922
15.1401
15.3862
15.6305
15.8729
16.1134
16.352
16.5887
16.8235
17.0564
17.2874
17.5165
17.7437
17.969
18.1923
18.4137
18.6332
18.8507
19.0663
19.28
19.4918
19.7017
19.9096
20.1156
20.3198
20.522
20.7223
20.9208
21.1173
21.312
21.5048
21.6957
21.8848
22.0721
22.2575
22.441
22.6228
22.8027
22.9809
23.1572
23.3318
23.5045
23.6756
23.8449
24.0124
24.1782
24.3423
24.5046
24.6653
24.8243
24.9816
25.1373
25.2913
25.4437
25.5944
25.7435
25.891
26.0369
26.1812
26.324
26.4652
26.6049
26.743
26.8796
27.0146
27.1482
27.2803
27.4109
27.54
27.6677
27.7939
27.9187
28.0421
28.164
28.2846
28.4038
28.5215
28.638
28.753
28.8667
28.9791
29.0901
29.1999
29.3083
29.4154
29.5212
29.6258
29.7291
29.8311
29.9319
30.0314
30.1298
30.2268
30.3227
30.4174
30.5109
30.6032
30.6944
30.7843
30.8731
30.9608
31.0473
31.1327
31.217
31.3001
31.3822
31.4631
31.543
31.6217
31.6994
31.776
31.8516
31.9261
31.9996
32.072
32.1434
32.2137
32.2831
32.3514
32.4187
32.485
32.5504
32.6147
32.6781
32.7405
32.8019
32.8624
32.9219
32.9805
33.0381
33.0948
33.1506
33.2054
33.2594
33.3124
33.3645
33.4156
33.4659
33.5153
33.5639
33.6115
33.6583
33.7041
33.7492
33.7933
33.8366
33.879
33.9206
33.9614
34.0013
34.0403
34.0786
34.116
34.1525
34.1883
34.2232
34.2574
34.2907
34.3232
34.3549
34.3858
34.4159
34.4452
34.4737
34.5015
34.5284
34.5546
34.58
34.6046
34.6284
34.6515
34.6738
34.6953
34.7161
34.7361
34.7554
34.7739
34.7916
34.8086
34.8248
34.8403
34.855
34.869
34.8823
34.8948
34.9065
34.9175
34.9278
34.9374
34.9462
34.9542
34.9615
34.9681
34.974
34.9791
34.9835
34.9872
34.9901
34.9923
34.9937
34.9945
-11.1569
-11.1515
-11.1407
-11.1244
-11.1028
-11.0758
-11.0433
-11.0055
-10.9622
-10.9136
-10.8596
-10.8001
-10.7354
-10.6652
-10.5897
-10.5088
-10.4225
-10.3309
-10.2339
-10.1316
-10.024
-9.91107
-9.79283
-9.66929
-9.54047
-9.40637
-9.26702
-9.12241
-8.97258
-8.81753
-8.65727
-8.49183
-8.32123
-8.14549
-7.96463
-7.7787
-7.58772
-7.39173
-7.19078
-6.98493
-6.77424
-6.55878
-6.33863
-6.1139
-5.88468
-5.65112
-5.41334
-5.1715
-4.92575
-4.67628
-4.42327
-4.16691
-3.90738
-3.64487
-3.37957
-3.11165
-2.84127