/*--------------------------------*- C++ -*----------------------------------*\
| =========                 |                                                 |
| \\      /  F ield         | OpenFOAM: The Open Source CFD Toolbox           |
|  \\    /   O peration     | Version:  2212                                  |
|   \\  /    A nd           | Website:  www.openfoam.com                      |
|    \\/     M anipulation  |                                                 |
\*---------------------------------------------------------------------------*/
FoamFile
{
    version     2.0;
    format      ascii;
    arch        "LSB;label=32;scalar=64";
    class       volScalarField;
    location    "210";
    object      p_rgh;
}
// * * * * * * * * * * * * * * * * * * * * * * * * * * * * * * * * * * * * * //

dimensions      [1 -1 -2 0 0 0 0];

internalField   nonuniform List<scalar> 
204800
(
-1.98164
-1.98031
-1.97788
-1.97416
-1.96924
-1.9631
-1.95573
-1.94713
-1.93731
-1.92627
-1.914
-1.90051
-1.88577
-1.86978
-1.85249
-1.8339
-1.81393
-1.79257
-1.76973
-1.74537
-1.7194
-1.69175
-1.66233
-1.63105
-1.59781
-1.56252
-1.52508
-1.48537
-1.44331
-1.39878
-1.35169
-1.30194
-1.24943
-1.19408
-1.13579
-1.07449
-1.0101
-0.94255
-0.871771
-0.797704
-0.720292
-0.639484
-0.555235
-0.467504
-0.376254
-0.281456
-0.183082
-0.0811127
0.0244688
0.133674
0.246508
0.362975
0.48307
0.606786
0.734112
0.865031
0.999522
1.13756
1.27912
1.42416
1.57265
1.72455
1.87981
2.03839
2.20024
2.3653
2.53351
2.70483
2.87918
3.0565
3.23673
3.4198
3.60564
3.79418
3.98535
4.17907
4.37527
4.57387
4.7748
4.97797
5.18331
5.39074
5.60017
5.81154
6.02474
6.23972
6.45638
6.67464
6.89443
7.11566
7.33825
7.56213
7.78721
8.01342
8.24067
8.4689
8.69802
8.92797
9.15866
9.39003
9.622
9.8545
10.0875
10.3208
10.5545
10.7885
11.0226
11.2569
11.4913
11.7256
11.96
12.1942
12.4283
12.6621
12.8957
13.129
13.3619
13.5944
13.8265
14.058
14.289
14.5194
14.7491
14.9782
15.2066
15.4342
15.661
15.887
16.1121
16.3364
16.5597
16.7821
17.0035
17.2239
17.4433
17.6616
17.8788
18.095
18.31
18.5238
18.7365
18.948
19.1583
19.3674
19.5753
19.7819
19.9872
20.1913
20.394
20.5955
20.7956
20.9944
21.1919
21.3881
21.5828
21.7763
21.9683
22.159
22.3483
22.5362
22.7227
22.9078
23.0915
23.2739
23.4548
23.6343
23.8124
23.989
24.1643
24.3381
24.5105
24.6815
24.8511
25.0193
25.186
25.3514
25.5153
25.6778
25.8389
25.9986
26.1568
26.3137
26.4692
26.6232
26.7759
26.9271
27.077
27.2255
27.3726
27.5183
27.6626
27.8056
27.9472
28.0874
28.2262
28.3637
28.4999
28.6347
28.7681
28.9002
29.031
29.1604
29.2885
29.4153
29.5407
29.6649
29.7877
29.9092
30.0295
30.1484
30.2661
30.3824
30.4975
30.6113
30.7239
30.8352
30.9452
31.0539
31.1615
31.2677
31.3727
31.4765
31.5791
31.6804
31.7806
31.8795
31.9771
32.0736
32.1689
32.263
32.3559
32.4476
32.5381
32.6274
32.7156
32.8026
32.8884
32.9731
33.0567
33.139
33.2203
33.3003
33.3793
33.4571
33.5338
33.6094
33.6838
33.7572
33.8294
33.9005
33.9706
34.0395
34.1073
34.174
34.2397
34.3043
34.3677
34.4302
34.4915
34.5518
34.611
34.6692
34.7263
34.7823
34.8373
34.8912
34.9441
34.996
35.0468
35.0966
35.1454
35.1931
35.2399
35.2856
35.3302
35.3739
35.4166
35.4582
35.4988
35.5385
35.5771
35.6147
35.6514
35.687
35.7216
35.7553
35.788
35.8197
35.8504
35.8801
35.9088
35.9366
35.9634
35.9892
36.0141
36.038
36.0609
36.0828
36.1038
36.1238
36.1429
36.161
36.1781
36.1943
36.2095
36.2238
36.2371
36.2494
36.2608
36.2713
36.2808
36.2893
36.2969
36.3036
36.3092
36.314
36.3178
36.3206
36.3225
36.3235
-1.93914
-1.93825
-1.93634
-1.93348
-1.92965
-1.92486
-1.91908
-1.91229
-1.90446
-1.89557
-1.88557
-1.87442
-1.86206
-1.84845
-1.83353
-1.81724
-1.7995
-1.78025
-1.75941
-1.7369
-1.71264
-1.68653
-1.6585
-1.62845
-1.5963
-1.56194
-1.5253
-1.48627
-1.44477
-1.40071
-1.35401
-1.30457
-1.25231
-1.19716
-1.13904
-1.07788
-1.01361
-0.946153
-0.875463
-0.801479
-0.724147
-0.643421
-0.559255
-0.47161
-0.380453
-0.285753
-0.187485
-0.0856289
0.0198321
0.128909
0.241607
0.357929
0.477872
0.601429
0.728587
0.85933
0.993638
1.13149
1.27284
1.41768
1.56596
1.71764
1.87267
2.03102
2.19262
2.35743
2.52539
2.69644
2.87053
3.04757
3.22752
3.41031
3.59585
3.7841
3.97496
4.16837
4.36425
4.56253
4.76313
4.96597
5.17098
5.37806
5.58715
5.79817
6.01102
6.22564
6.44194
6.65983
6.87925
7.1001
7.32232
7.54581
7.77051
7.99633
8.2232
8.45103
8.67976
8.90931
9.1396
9.37056
9.60213
9.83423
10.0668
10.2997
10.533
10.7665
11.0003
11.2342
11.4681
11.7021
11.936
12.1698
12.4034
12.6369
12.87
13.1029
13.3354
13.5675
13.7991
14.0302
14.2608
14.4907
14.7201
14.9487
15.1766
15.4038
15.6302
15.8558
16.0805
16.3044
16.5273
16.7493
16.9703
17.1903
17.4092
17.6271
17.844
18.0597
18.2743
18.4877
18.7
18.9111
19.1211
19.3297
19.5372
19.7434
19.9483
20.152
20.3544
20.5555
20.7552
20.9537
21.1508
21.3465
21.5409
21.734
21.9257
22.116
22.3049
22.4924
22.6786
22.8634
23.0467
23.2287
23.4092
23.5884
23.7661
23.9425
24.1174
24.2909
24.463
24.6336
24.8029
24.9707
25.1371
25.3021
25.4657
25.6279
25.7887
25.9481
26.106
26.2626
26.4177
26.5715
26.7239
26.8748
27.0244
27.1726
27.3194
27.4648
27.6089
27.7515
27.8928
28.0328
28.1714
28.3086
28.4445
28.579
28.7122
28.844
28.9745
29.1037
29.2315
29.358
29.4832
29.6071
29.7297
29.851
29.971
30.0897
30.2072
30.3233
30.4381
30.5517
30.664
30.7751
30.8849
30.9935
31.1008
31.2068
31.3116
31.4152
31.5176
31.6187
31.7186
31.8173
31.9148
32.0111
32.1062
32.2001
32.2928
32.3843
32.4747
32.5638
32.6518
32.7386
32.8243
32.9088
32.9922
33.0744
33.1555
33.2354
33.3142
33.3918
33.4684
33.5438
33.6181
33.6913
33.7634
33.8344
33.9043
33.973
34.0407
34.1073
34.1729
34.2373
34.3007
34.3629
34.4242
34.4843
34.5434
34.6015
34.6584
34.7144
34.7693
34.8231
34.8759
34.9277
34.9784
35.0281
35.0768
35.1244
35.171
35.2166
35.2612
35.3048
35.3474
35.3889
35.4295
35.469
35.5076
35.5451
35.5817
35.6173
35.6519
35.6855
35.7181
35.7497
35.7803
35.81
35.8387
35.8664
35.8931
35.9189
35.9437
35.9675
35.9904
36.0123
36.0333
36.0532
36.0722
36.0903
36.1074
36.1235
36.1387
36.153
36.1663
36.1786
36.19
36.2004
36.2099
36.2184
36.226
36.2326
36.2383
36.243
36.2468
36.2496
36.2515
36.2525
-1.95353
-1.9526
-1.95071
-1.94786
-1.94407
-1.93931
-1.93356
-1.92681
-1.91901
-1.91015
-1.90017
-1.88904
-1.87669
-1.86308
-1.84815
-1.83183
-1.81405
-1.79475
-1.77383
-1.75123
-1.72686
-1.70064
-1.67247
-1.64228
-1.60996
-1.57543
-1.5386
-1.49939
-1.45769
-1.41343
-1.36652
-1.31688
-1.26441
-1.20906
-1.15073
-1.08936
-1.02489
-0.957239
-0.886356
-0.812182
-0.734666
-0.653759
-0.569417
-0.481602
-0.390279
-0.295417
-0.196992
-0.0949815
0.0106291
0.119851
0.232692
0.349153
0.469231
0.59292
0.720207
0.851076
0.985507
1.12348
1.26495
1.4099
1.55829
1.71008
1.86522
2.02367
2.18538
2.35029
2.51835
2.6895
2.86367
3.04081
3.22085
3.40372
3.58935
3.77767
3.96862
4.16211
4.35806
4.55642
4.75709
4.96
5.16507
5.37222
5.58137
5.79244
6.00536
6.22003
6.43638
6.65433
6.87379
7.09469
7.31695
7.54049
7.76523
7.99108
8.21798
8.44585
8.67461
8.90419
9.1345
9.36549
9.59708
9.8292
10.0618
10.2947
10.528
10.7616
10.9953
11.2292
11.4631
11.6971
11.931
12.1648
12.3985
12.6319
12.8651
13.0979
13.3304
13.5625
13.7941
14.0252
14.2557
14.4857
14.715
14.9436
15.1715
15.3987
15.6251
15.8506
16.0753
16.2991
16.522
16.7439
16.9649
17.1848
17.4038
17.6216
17.8384
18.0541
18.2687
18.4821
18.6943
18.9054
19.1153
19.3239
19.5313
19.7375
19.9424
20.146
20.3483
20.5493
20.749
20.9474
21.1445
21.3402
21.5345
21.7275
21.9191
22.1094
22.2983
22.4858
22.6719
22.8566
23.0399
23.2218
23.4023
23.5814
23.759
23.9353
24.1102
24.2836
24.4556
24.6263
24.7954
24.9632
25.1296
25.2945
25.4581
25.6202
25.7809
25.9402
26.0981
26.2546
26.4097
26.5634
26.7157
26.8666
27.0162
27.1643
27.311
27.4564
27.6004
27.743
27.8843
28.0241
28.1627
28.2998
28.4356
28.5701
28.7032
28.835
28.9655
29.0946
29.2224
29.3488
29.474
29.5978
29.7204
29.8416
29.9616
30.0802
30.1976
30.3137
30.4285
30.542
30.6543
30.7653
30.875
30.9835
31.0908
31.1968
31.3016
31.4051
31.5074
31.6085
31.7084
31.807
31.9045
32.0007
32.0958
32.1896
32.2823
32.3738
32.4641
32.5532
32.6411
32.7279
32.8136
32.898
32.9813
33.0635
33.1445
33.2244
33.3032
33.3808
33.4573
33.5327
33.607
33.6801
33.7522
33.8231
33.893
33.9617
34.0294
34.096
34.1614
34.2259
34.2892
34.3514
34.4126
34.4728
34.5318
34.5898
34.6468
34.7027
34.7576
34.8114
34.8642
34.9159
34.9666
35.0163
35.0649
35.1125
35.1591
35.2047
35.2493
35.2928
35.3354
35.3769
35.4175
35.457
35.4955
35.5331
35.5696
35.6052
35.6397
35.6733
35.7059
35.7375
35.7681
35.7978
35.8264
35.8541
35.8809
35.9066
35.9314
35.9552
35.9781
36
36.0209
36.0409
36.0599
36.0779
36.095
36.1112
36.1263
36.1406
36.1538
36.1662
36.1775
36.188
36.1974
36.206
36.2135
36.2202
36.2258
36.2306
36.2344
36.2372
36.2391
36.24
-1.942
-1.94127
-1.93973
-1.93744
-1.93435
-1.93045
-1.92572
-1.92011
-1.91357
-1.90605
-1.89749
-1.88782
-1.87696
-1.86484
-1.85138
-1.8365
-1.8201
-1.80211
-1.78243
-1.76097
-1.73764
-1.71235
-1.68501
-1.65553
-1.62382
-1.5898
-1.55339
-1.51449
-1.47304
-1.42895
-1.38214
-1.33255
-1.28009
-1.22469
-1.1663
-1.10483
-1.04025
-0.972471
-0.901453
-0.82714
-0.749482
-0.668436
-0.583958
-0.496012
-0.404563
-0.309583
-0.211047
-0.108935
-0.0032312
0.106076
0.218993
0.335521
0.455658
0.579398
0.706727
0.83763
0.972087
1.11007
1.25156
1.39651
1.5449
1.69667
1.8518
2.01022
2.17189
2.33676
2.50477
2.67586
2.84997
3.02705
3.20701
3.3898
3.57534
3.76357
3.95442
4.1478
4.34365
4.54189
4.74243
4.94521
5.15015
5.35716
5.56617
5.77709
5.98985
6.20436
6.42054
6.63832
6.85761
7.07833
7.3004
7.52375
7.74829
7.97394
8.20064
8.4283
8.65685
8.8862
9.1163
9.34707
9.57842
9.81031
10.0426
10.2754
10.5084
10.7417
10.9752
11.2088
11.4425
11.6762
11.9099
12.1434
12.3768
12.61
12.8429
13.0754
13.3076
13.5394
13.7707
14.0016
14.2318
14.4615
14.6905
14.9188
15.1465
15.3733
15.5994
15.8247
16.0491
16.2726
16.4952
16.7168
16.9375
17.1571
17.3757
17.5933
17.8098
18.0252
18.2394
18.4525
18.6645
18.8753
19.0848
19.2932
19.5003
19.7061
19.9107
20.114
20.3161
20.5168
20.7162
20.9143
21.111
21.3064
21.5005
21.6932
21.8845
22.0745
22.2631
22.4503
22.6361
22.8205
23.0035
23.1851
23.3653
23.5441
23.7215
23.8975
24.0721
24.2453
24.417
24.5874
24.7563
24.9238
25.0899
25.2546
25.4178
25.5797
25.7401
25.8992
26.0568
26.2131
26.3679
26.5214
26.6734
26.8241
26.9733
27.1212
27.2677
27.4128
27.5566
27.699
27.84
27.9796
28.1179
28.2548
28.3904
28.5247
28.6576
28.7891
28.9193
29.0482
29.1758
29.3021
29.427
29.5506
29.673
29.794
29.9137
30.0322
30.1494
30.2652
30.3798
30.4932
30.6053
30.7161
30.8256
30.9339
31.041
31.1468
31.2514
31.3548
31.4569
31.5578
31.6575
31.756
31.8533
31.9494
32.0442
32.1379
32.2304
32.3217
32.4119
32.5009
32.5887
32.6753
32.7608
32.8451
32.9283
33.0103
33.0912
33.1709
33.2495
33.327
33.4034
33.4787
33.5528
33.6258
33.6978
33.7686
33.8383
33.9069
33.9745
34.0409
34.1063
34.1706
34.2338
34.296
34.357
34.4171
34.476
34.5339
34.5908
34.6466
34.7014
34.7551
34.8078
34.8594
34.91
34.9596
35.0082
35.0557
35.1022
35.1477
35.1922
35.2357
35.2782
35.3196
35.3601
35.3995
35.438
35.4755
35.512
35.5475
35.582
35.6155
35.648
35.6796
35.7101
35.7397
35.7684
35.796
35.8227
35.8484
35.8731
35.8969
35.9197
35.9416
35.9625
35.9824
36.0014
36.0194
36.0365
36.0526
36.0677
36.0819
36.0952
36.1075
36.1188
36.1292
36.1387
36.1472
36.1548
36.1614
36.167
36.1718
36.1755
36.1784
36.1803
36.1812
-1.96887
-1.96813
-1.96661
-1.96433
-1.96126
-1.95739
-1.95267
-1.94708
-1.94056
-1.93306
-1.92451
-1.91484
-1.90398
-1.89186
-1.87838
-1.86346
-1.84703
-1.82898
-1.80923
-1.78768
-1.76425
-1.73883
-1.71135
-1.6817
-1.64981
-1.61559
-1.57895
-1.53981
-1.49809
-1.45372
-1.40661
-1.3567
-1.30392
-1.24819
-1.18945
-1.12763
-1.06269
-0.994556
-0.92318
-0.84851
-0.770498
-0.689101
-0.604277
-0.51599
-0.424207
-0.328898
-0.23004
-0.127612
-0.0215988
0.0880114
0.201225
0.318044
0.438466
0.562484
0.690087
0.821258
0.955977
1.09422
1.23596
1.38116
1.52979
1.6818
1.83716
1.99581
2.15771
2.3228
2.49103
2.66234
2.83666
3.01394
3.1941
3.37709
3.56282
3.75124
3.94227
4.13584
4.33186
4.53027
4.73099
4.93394
5.13903
5.3462
5.55536
5.76643
5.97933
6.19398
6.4103
6.62821
6.84762
7.06847
7.29066
7.51412
7.73877
7.96453
8.19133
8.41909
8.64772
8.87717
9.10735
9.33819
9.56963
9.80158
10.034
10.2668
10.4999
10.7332
10.9668
11.2004
11.4342
11.6679
11.9016
12.1352
12.3686
12.6018
12.8347
13.0673
13.2995
13.5313
13.7626
13.9934
14.2237
14.4533
14.6823
14.9107
15.1383
15.3651
15.5912
15.8164
16.0408
16.2642
16.4868
16.7084
16.929
17.1486
17.3672
17.5847
17.8012
18.0165
18.2307
18.4438
18.6556
18.8663
19.0758
19.2841
19.4912
19.697
19.9015
20.1047
20.3067
20.5073
20.7067
20.9047
21.1013
21.2967
21.4906
21.6833
21.8745
22.0644
22.2529
22.44
22.6257
22.8101
22.993
23.1745
23.3546
23.5334
23.7107
23.8866
24.061
24.2341
24.4058
24.576
24.7448
24.9123
25.0783
25.2428
25.406
25.5678
25.7282
25.8871
26.0447
26.2008
26.3555
26.5089
26.6608
26.8114
26.9606
27.1084
27.2548
27.3998
27.5435
27.6857
27.8267
27.9662
28.1044
28.2413
28.3768
28.5109
28.6437
28.7752
28.9053
29.0341
29.1616
29.2878
29.4126
29.5362
29.6584
29.7794
29.899
30.0174
30.1345
30.2503
30.3648
30.478
30.59
30.7008
30.8102
30.9185
31.0255
31.1312
31.2357
31.339
31.4411
31.5419
31.6415
31.7399
31.8371
31.9331
32.0279
32.1215
32.214
32.3052
32.3953
32.4842
32.5719
32.6585
32.7439
32.8282
32.9113
32.9932
33.074
33.1537
33.2323
33.3097
33.386
33.4612
33.5353
33.6083
33.6801
33.7509
33.8206
33.8891
33.9566
34.023
34.0883
34.1526
34.2158
34.2779
34.3389
34.3989
34.4578
34.5156
34.5725
34.6282
34.6829
34.7366
34.7892
34.8408
34.8914
34.941
34.9895
35.037
35.0835
35.1289
35.1734
35.2168
35.2592
35.3007
35.3411
35.3805
35.419
35.4564
35.4929
35.5283
35.5628
35.5963
35.6288
35.6603
35.6909
35.7204
35.749
35.7767
35.8033
35.829
35.8537
35.8775
35.9003
35.9221
35.943
35.9629
35.9819
35.9999
36.0169
36.033
36.0482
36.0623
36.0756
36.0879
36.0992
36.1096
36.1191
36.1276
36.1351
36.1417
36.1474
36.1521
36.1559
36.1587
36.1606
36.1615
-1.97956
-1.97893
-1.97765
-1.97572
-1.9731
-1.96978
-1.96571
-1.96085
-1.95513
-1.94848
-1.94083
-1.93211
-1.9222
-1.91104
-1.89852
-1.88456
-1.86903
-1.85186
-1.83293
-1.81215
-1.78941
-1.76462
-1.73769
-1.70852
-1.67703
-1.64312
-1.60673
-1.56775
-1.52613
-1.48179
-1.43465
-1.38465
-1.33172
-1.27581
-1.21685
-1.15478
-1.08956
-1.02113
-0.949445
-0.874452
-0.796112
-0.714383
-0.629227
-0.54061
-0.448502
-0.352874
-0.253704
-0.150972
-0.0446631
0.0652336
0.178724
0.295811
0.416492
0.54076
0.668603
0.800006
0.934948
1.07341
1.21535
1.36075
1.50957
1.66176
1.8173
1.97611
2.13817
2.30341
2.47178
2.64323
2.81768
2.99508
3.17536
3.35845
3.54429
3.73281
3.92393
4.11757
4.31367
4.51215
4.71293
4.91593
5.12107
5.32828
5.53748
5.74858
5.9615
6.17617
6.3925
6.61041
6.82982
7.05066
7.27283
7.49627
7.72089
7.94662
8.17338
8.40109
8.62968
8.85906
9.08918
9.31995
9.55131
9.78318
10.0155
10.2482
10.4812
10.7145
10.9479
11.1815
11.4151
11.6487
11.8822
12.1157
12.3489
12.582
12.8148
13.0472
13.2793
13.5109
13.742
13.9727
14.2028
14.4323
14.6611
14.8892
15.1167
15.3433
15.5692
15.7942
16.0184
16.2417
16.464
16.6854
16.9058
17.1252
17.3436
17.5609
17.7771
17.9922
18.2062
18.419
18.6307
18.8412
19.0505
19.2585
19.4653
19.6709
19.8752
20.0782
20.2799
20.4803
20.6794
20.8772
21.0736
21.2687
21.4625
21.6548
21.8458
22.0355
22.2237
22.4106
22.5961
22.7802
22.9629
23.1442
23.3241
23.5025
23.6796
23.8553
24.0295
24.2024
24.3738
24.5438
24.7124
24.8796
25.0453
25.2097
25.3726
25.5342
25.6943
25.853
26.0104
26.1663
26.3208
26.4739
26.6257
26.776
26.925
27.0725
27.2187
27.3635
27.507
27.649
27.7898
27.9291
28.0671
28.2037
28.339
28.4729
28.6055
28.7368
28.8668
28.9954
29.1227
29.2486
29.3733
29.4966
29.6187
29.7395
29.8589
29.9771
30.094
30.2096
30.324
30.437
30.5488
30.6594
30.7687
30.8768
30.9836
31.0892
31.1935
31.2966
31.3985
31.4992
31.5986
31.6969
31.7939
31.8898
31.9844
32.0779
32.1702
32.2613
32.3512
32.44
32.5276
32.614
32.6993
32.7834
32.8663
32.9482
33.0289
33.1084
33.1869
33.2642
33.3403
33.4154
33.4894
33.5622
33.634
33.7046
33.7742
33.8426
33.91
33.9763
34.0415
34.1056
34.1687
34.2307
34.2916
34.3515
34.4103
34.4681
34.5248
34.5805
34.6351
34.6887
34.7413
34.7928
34.8433
34.8927
34.9412
34.9886
35.035
35.0804
35.1247
35.1681
35.2105
35.2518
35.2922
35.3316
35.3699
35.4073
35.4437
35.4791
35.5135
35.547
35.5794
35.6109
35.6414
35.6709
35.6995
35.727
35.7537
35.7793
35.804
35.8277
35.8505
35.8723
35.8931
35.913
35.9319
35.9499
35.9669
35.983
35.9981
36.0122
36.0255
36.0377
36.0491
36.0594
36.0689
36.0774
36.0849
36.0915
36.0972
36.1019
36.1056
36.1085
36.1103
36.1113
-2.01597
-2.01534
-2.01407
-2.01215
-2.00956
-2.00626
-2.00222
-1.99739
-1.99169
-1.98508
-1.97746
-1.96877
-1.9589
-1.94778
-1.9353
-1.92137
-1.90588
-1.88873
-1.86983
-1.84905
-1.82632
-1.80151
-1.77454
-1.74532
-1.71374
-1.67972
-1.64318
-1.60404
-1.56221
-1.51763
-1.47021
-1.41991
-1.36664
-1.31036
-1.25101
-1.18853
-1.12287
-1.05398
-0.981823
-0.906351
-0.827524
-0.745303
-0.659654
-0.570544
-0.477945
-0.381829
-0.282177
-0.178968
-0.072189
0.0381707
0.152117
0.269653
0.390774
0.515475
0.643744
0.775566
0.91092
1.04978
1.19213
1.33792
1.48712
1.6397
1.7956
1.95479
2.11721
2.2828
2.45152
2.62331
2.7981
2.97583
3.15644
3.33986
3.52601
3.71484
3.90626
4.10021
4.2966
4.49537
4.69643
4.89971
5.10512
5.3126
5.52205
5.7334
5.94657
6.16148
6.37805
6.59619
6.81582
7.03687
7.25926
7.4829
7.70772
7.93364
8.16058
8.38847
8.61723
8.84678
9.07706
9.30798
9.53949
9.7715
10.0039
10.2368
10.4699
10.7033
10.9368
11.1705
11.4042
11.6379
11.8715
12.105
12.3384
12.5715
12.8043
13.0368
13.2689
13.5006
13.7318
13.9625
14.1926
14.4221
14.6509
14.8791
15.1065
15.3332
15.5591
15.7841
16.0083
16.2315
16.4539
16.6752
16.8956
17.115
17.3333
17.5506
17.7668
17.9818
18.1958
18.4085
18.6201
18.8306
19.0398
19.2478
19.4545
19.66
19.8642
20.0671
20.2688
20.4691
20.6681
20.8658
21.0622
21.2572
21.4508
21.6431
21.834
22.0236
22.2117
22.3985
22.5839
22.7679
22.9505
23.1316
23.3114
23.4898
23.6668
23.8423
24.0165
24.1892
24.3605
24.5304
24.6989
24.8659
25.0316
25.1958
25.3587
25.5201
25.6801
25.8387
25.9959
26.1517
26.3061
26.4591
26.6107
26.761
26.9098
27.0573
27.2033
27.348
27.4914
27.6333
27.7739
27.9131
28.051
28.1875
28.3227
28.4565
28.589
28.7202
28.85
28.9785
29.1057
29.2315
29.3561
29.4793
29.6013
29.7219
29.8413
29.9593
30.0761
30.1916
30.3059
30.4188
30.5306
30.641
30.7502
30.8582
30.9649
31.0704
31.1746
31.2776
31.3794
31.48
31.5793
31.6775
31.7745
31.8702
31.9648
32.0581
32.1503
32.2413
32.3312
32.4198
32.5073
32.5937
32.6789
32.7629
32.8458
32.9275
33.0081
33.0876
33.166
33.2432
33.3193
33.3943
33.4682
33.541
33.6126
33.6832
33.7527
33.8211
33.8884
33.9546
34.0197
34.0838
34.1468
34.2087
34.2696
34.3294
34.3882
34.4459
34.5025
34.5582
34.6127
34.6662
34.7187
34.7702
34.8206
34.8701
34.9184
34.9658
35.0122
35.0575
35.1018
35.1452
35.1875
35.2288
35.2691
35.3084
35.3468
35.3841
35.4204
35.4558
35.4902
35.5236
35.556
35.5874
35.6179
35.6474
35.6759
35.7035
35.7301
35.7557
35.7803
35.804
35.8268
35.8485
35.8694
35.8892
35.9081
35.9261
35.9431
35.9591
35.9742
35.9884
36.0016
36.0138
36.0251
36.0355
36.0449
36.0534
36.0609
36.0675
36.0732
36.0779
36.0817
36.0845
36.0864
36.0873
-2.04223
-2.04167
-2.04056
-2.03887
-2.03658
-2.03365
-2.03003
-2.02568
-2.02051
-2.01447
-2.00747
-1.99941
-1.99021
-1.97977
-1.96798
-1.95474
-1.93993
-1.92344
-1.90518
-1.88501
-1.86284
-1.83857
-1.81208
-1.78327
-1.75206
-1.71835
-1.68205
-1.64307
-1.60135
-1.55681
-1.50937
-1.45897
-1.40556
-1.34908
-1.28947
-1.22668
-1.16068
-1.09142
-1.01885
-0.942939
-0.863656
-0.780963
-0.694831
-0.605232
-0.512139
-0.415531
-0.315387
-0.211691
-0.104431
0.00640312
0.120816
0.238809
0.360379
0.485519
0.614218
0.74646
0.882226
1.02149
1.16423
1.3104
1.45998
1.61292
1.76919
1.92872
2.09148
2.25742
2.42646
2.59857
2.77367
2.9517
3.1326
3.31631
3.50275
3.69184
3.88353
4.07773
4.27438
4.47338
4.67468
4.87818
5.08382
5.29151
5.50116
5.71271
5.92607
6.14116
6.35789
6.5762
6.79599
7.01719
7.23972
7.4635
7.68844
7.91448
8.14153
8.36952
8.59837
8.82801
9.05837
9.28937
9.52093
9.753
9.9855
10.2184
10.4515
10.6849
10.9185
11.1522
11.3859
11.6196
11.8532
12.0867
12.32
12.5531
12.7859
13.0184
13.2504
13.482
13.7132
13.9438
14.1738
14.4033
14.632
14.8601
15.0874
15.314
15.5398
15.7647
15.9887
16.2119
16.4341
16.6553
16.8756
17.0948
17.313
17.5301
17.7462
17.9611
18.1749
18.3875
18.5989
18.8092
19.0182
19.2261
19.4326
19.6379
19.842
20.0447
20.2462
20.4463
20.6452
20.8427
21.0388
21.2337
21.4271
21.6192
21.8099
21.9993
22.1872
22.3738
22.559
22.7428
22.9252
23.1062
23.2857
23.4639
23.6407
23.816
23.99
24.1625
24.3336
24.5033
24.6716
24.8384
25.0039
25.1679
25.3305
25.4917
25.6516
25.81
25.967
26.1226
26.2768
26.4296
26.581
26.731
26.8796
27.0269
27.1728
27.3173
27.4604
27.6022
27.7426
27.8816
28.0193
28.1556
28.2906
28.4242
28.5565
28.6875
28.8171
28.9454
29.0724
29.1981
29.3225
29.4455
29.5673
29.6878
29.807
29.9248
30.0415
30.1568
30.2709
30.3837
30.4952
30.6055
30.7145
30.8223
30.9289
31.0342
31.1383
31.2411
31.3428
31.4432
31.5424
31.6404
31.7372
31.8328
31.9272
32.0205
32.1125
32.2034
32.2931
32.3816
32.469
32.5552
32.6402
32.7241
32.8069
32.8885
32.969
33.0483
33.1266
33.2037
33.2797
33.3545
33.4283
33.501
33.5725
33.643
33.7123
33.7806
33.8478
33.9139
33.979
34.043
34.1059
34.1677
34.2285
34.2882
34.3468
34.4044
34.461
34.5165
34.571
34.6245
34.6769
34.7282
34.7786
34.8279
34.8762
34.9235
34.9698
35.0151
35.0593
35.1026
35.1448
35.1861
35.2263
35.2656
35.3039
35.3412
35.3774
35.4127
35.4471
35.4804
35.5128
35.5442
35.5746
35.604
35.6325
35.66
35.6866
35.7121
35.7367
35.7604
35.7831
35.8048
35.8256
35.8454
35.8643
35.8822
35.8992
35.9152
35.9303
35.9444
35.9576
35.9699
35.9812
35.9915
36.0009
36.0094
36.0169
36.0235
36.0291
36.0338
36.0376
36.0404
36.0423
36.0432
-2.08561
-2.08506
-2.08396
-2.08229
-2.08002
-2.07713
-2.07355
-2.06924
-2.06413
-2.05816
-2.05122
-2.04325
-2.03415
-2.02381
-2.01214
-1.99902
-1.98435
-1.96801
-1.94989
-1.92988
-1.90786
-1.88372
-1.85736
-1.82867
-1.79755
-1.7639
-1.72764
-1.68866
-1.6469
-1.60227
-1.5547
-1.50412
-1.45048
-1.39372
-1.33379
-1.27063
-1.20421
-1.13449
-1.06144
-0.985008
-0.905177
-0.821915
-0.735195
-0.644994
-0.55129
-0.454064
-0.353299
-0.248982
-0.141103
-0.0296531
0.0853703
0.203968
0.326136
0.451866
0.581148
0.713965
0.850297
0.990121
1.13341
1.28013
1.43024
1.58371
1.74049
1.90054
2.06381
2.23024
2.39978
2.57237
2.74794
2.92645
3.10782
3.29198
3.47886
3.6684
3.86053
4.05516
4.25222
4.45165
4.65335
4.85725
5.06328
5.27135
5.48138
5.6933
5.90702
6.12246
6.33955
6.55819
6.77831
6.99983
7.22267
7.44676
7.672
7.89832
8.12566
8.35392
8.58303
8.81293
9.04353
9.27477
9.50656
9.73885
9.97157
10.2046
10.438
10.6716
10.9053
11.1392
11.373
11.6069
11.8407
12.0743
12.3078
12.541
12.7739
13.0064
13.2386
13.4703
13.7016
13.9322
14.1624
14.3918
14.6207
14.8488
15.0762
15.3028
15.5286
15.7535
15.9776
16.2008
16.423
16.6442
16.8645
17.0837
17.3019
17.519
17.735
17.9499
18.1636
18.3762
18.5876
18.7978
19.0068
19.2146
19.4211
19.6263
19.8303
20.033
20.2344
20.4345
20.6332
20.8306
21.0267
21.2214
21.4148
21.6068
21.7974
21.9867
22.1745
22.361
22.5461
22.7298
22.912
23.0929
23.2724
23.4504
23.6271
23.8023
23.9761
24.1485
24.3195
24.4891
24.6572
24.824
24.9893
25.1532
25.3157
25.4768
25.6365
25.7947
25.9516
26.1071
26.2612
26.4138
26.5651
26.715
26.8635
27.0106
27.1564
27.3007
27.4437
27.5854
27.7256
27.8645
28.0021
28.1383
28.2731
28.4066
28.5388
28.6696
28.7991
28.9273
29.0542
29.1797
29.304
29.4269
29.5486
29.6689
29.7879
29.9057
30.0222
30.1374
30.2514
30.3641
30.4755
30.5856
30.6946
30.8022
30.9087
31.0139
31.1178
31.2206
31.3221
31.4224
31.5215
31.6194
31.7161
31.8116
31.9059
31.999
32.091
32.1817
32.2713
32.3597
32.447
32.5331
32.6181
32.7019
32.7845
32.866
32.9464
33.0257
33.1038
33.1808
33.2567
33.3315
33.4052
33.4778
33.5492
33.6196
33.6889
33.7571
33.8242
33.8902
33.9552
34.0191
34.0819
34.1437
34.2044
34.264
34.3226
34.3801
34.4366
34.4921
34.5465
34.5999
34.6522
34.7035
34.7538
34.8031
34.8514
34.8986
34.9448
34.99
35.0342
35.0774
35.1196
35.1608
35.201
35.2402
35.2784
35.3157
35.3519
35.3872
35.4215
35.4548
35.4871
35.5184
35.5488
35.5782
35.6067
35.6341
35.6606
35.6862
35.7108
35.7344
35.7571
35.7788
35.7995
35.8193
35.8382
35.8561
35.873
35.889
35.9041
35.9182
35.9314
35.9436
35.9549
35.9652
35.9746
35.9831
35.9906
35.9971
36.0028
36.0075
36.0112
36.014
36.0159
36.0169
-2.12264
-2.12214
-2.12115
-2.11963
-2.11757
-2.11492
-2.11164
-2.10767
-2.10294
-2.09737
-2.09088
-2.08339
-2.07478
-2.06497
-2.05384
-2.04128
-2.02717
-2.0114
-1.99385
-1.97439
-1.95292
-1.92931
-1.90345
-1.87523
-1.84454
-1.81129
-1.77536
-1.73668
-1.69515
-1.65069
-1.60323
-1.5527
-1.49903
-1.44218
-1.38209
-1.31871
-1.25201
-1.18195
-1.1085
-1.03163
-0.951311
-0.867526
-0.780252
-0.689471
-0.595166
-0.497324
-0.395932
-0.290981
-0.182465
-0.0703781
0.0452802
0.164508
0.287301
0.413649
0.54354
0.676959
0.813883
0.95429
1.09815
1.24543
1.3961
1.55012
1.70744
1.86802
2.0318
2.19874
2.36878
2.54187
2.71793
2.89691
3.07874
3.26336
3.4507
3.64068
3.83324
4.0283
4.22578
4.42561
4.62771
4.83201
5.03841
5.24686
5.45726
5.66953
5.88359
6.09937
6.31678
6.53574
6.75617
6.97799
7.20112
7.42548
7.651
7.87758
8.10517
8.33367
8.56302
8.79314
9.02395
9.25539
9.48738
9.71985
9.95274
10.186
10.4195
10.6532
10.8871
11.1211
11.3551
11.589
11.8229
12.0566
12.2902
12.5235
12.7564
12.989
13.2213
13.453
13.6843
13.915
14.1451
14.3746
14.6034
14.8316
15.0589
15.2855
15.5113
15.7362
15.9602
16.1834
16.4055
16.6267
16.8469
17.0661
17.2842
17.5012
17.7171
17.9319
18.1456
18.358
18.5694
18.7794
18.9883
19.196
19.4024
19.6075
19.8113
20.0139
20.2151
20.4151
20.6137
20.8109
21.0069
21.2014
21.3947
21.5865
21.777
21.9661
22.1538
22.3401
22.525
22.7085
22.8906
23.0713
23.2506
23.4285
23.6049
23.78
23.9536
24.1258
24.2966
24.466
24.634
24.8005
24.9657
25.1294
25.2917
25.4526
25.6121
25.7702
25.9269
26.0822
26.236
26.3885
26.5396
26.6893
26.8376
26.9846
27.1301
27.2743
27.4171
27.5586
27.6986
27.8374
27.9747
28.1107
28.2454
28.3787
28.5107
28.6414
28.7707
28.8987
29.0254
29.1508
29.2748
29.3976
29.5191
29.6392
29.7581
29.8757
29.992
30.1071
30.2209
30.3334
30.4447
30.5547
30.6634
30.7709
30.8772
30.9822
31.0861
31.1887
31.29
31.3902
31.4891
31.5869
31.6834
31.7788
31.8729
31.9659
32.0577
32.1483
32.2378
32.3261
32.4132
32.4992
32.584
32.6677
32.7502
32.8316
32.9119
32.991
33.069
33.1459
33.2217
33.2963
33.3699
33.4423
33.5137
33.584
33.6531
33.7212
33.7882
33.8542
33.919
33.9828
34.0455
34.1072
34.1678
34.2274
34.2858
34.3433
34.3997
34.4551
34.5094
34.5627
34.6149
34.6662
34.7164
34.7656
34.8137
34.8609
34.907
34.9522
34.9963
35.0394
35.0816
35.1227
35.1628
35.202
35.2401
35.2773
35.3135
35.3487
35.3829
35.4162
35.4484
35.4797
35.5101
35.5394
35.5678
35.5953
35.6217
35.6472
35.6718
35.6954
35.718
35.7397
35.7604
35.7802
35.799
35.8168
35.8338
35.8497
35.8648
35.8789
35.892
35.9042
35.9155
35.9258
35.9352
35.9436
35.9511
35.9577
35.9633
35.968
35.9717
35.9745
35.9764
35.9773
-2.17102
-2.17053
-2.16955
-2.16806
-2.16604
-2.16343
-2.1602
-2.15629
-2.15164
-2.14616
-2.13978
-2.13241
-2.12395
-2.1143
-2.10335
-2.09099
-2.07711
-2.06158
-2.04428
-2.0251
-2.00391
-1.98059
-1.95503
-1.9271
-1.89669
-1.86371
-1.82803
-1.78956
-1.74822
-1.7039
-1.65654
-1.60605
-1.55237
-1.49544
-1.43521
-1.37164
-1.30467
-1.23429
-1.16045
-1.08314
-1.00232
-0.917991
-0.830129
-0.738721
-0.643757
-0.54523
-0.443131
-0.337458
-0.228208
-0.11538
0.00102401
0.120998
0.244535
0.371624
0.502252
0.6364
0.774047
0.915169
1.05974
1.20772
1.35908
1.51378
1.67177
1.83301
1.99745
2.16504
2.33572
2.50944
2.68612
2.86572
3.04816
3.23338
3.42131
3.61188
3.80501
4.00063
4.19867
4.39905
4.60169
4.80651
5.01345
5.2224
5.4333
5.64607
5.86062
6.07688
6.29475
6.51417
6.73504
6.9573
7.18086
7.40563
7.63155
7.85853
8.0865
8.31538
8.54509
8.77556
9.00672
9.23849
9.4708
9.70359
9.93678
10.1703
10.4041
10.6381
10.8722
11.1065
11.3407
11.5749
11.809
12.0429
12.2767
12.5101
12.7433
12.9761
13.2084
13.4404
13.6718
13.9026
14.1329
14.3625
14.5914
14.8196
15.0471
15.2738
15.4996
15.7246
15.9487
16.1718
16.394
16.6153
16.8355
17.0547
17.2728
17.4898
17.7058
17.9205
18.1342
18.3467
18.5579
18.768
18.9769
19.1845
19.3908
19.5959
19.7997
20.0022
20.2034
20.4032
20.6018
20.799
20.9948
21.1893
21.3824
21.5742
21.7646
21.9536
22.1412
22.3274
22.5122
22.6956
22.8776
23.0581
23.2373
23.4151
23.5914
23.7664
23.9399
24.112
24.2826
24.4519
24.6197
24.7862
24.9512
25.1148
25.2769
25.4377
25.5971
25.755
25.9115
26.0667
26.2204
26.3728
26.5237
26.6733
26.8215
26.9683
27.1137
27.2577
27.4004
27.5417
27.6816
27.8202
27.9574
28.0933
28.2278
28.361
28.4928
28.6233
28.7525
28.8804
29.0069
29.1322
29.2561
29.3787
29.5
29.6201
29.7388
29.8563
29.9725
30.0874
30.201
30.3134
30.4245
30.5344
30.643
30.7504
30.8566
30.9615
31.0652
31.1676
31.2689
31.3689
31.4677
31.5653
31.6618
31.757
31.851
31.9439
32.0356
32.1261
32.2154
32.3036
32.3906
32.4765
32.5612
32.6447
32.7272
32.8085
32.8886
32.9676
33.0455
33.1223
33.198
33.2726
33.346
33.4184
33.4897
33.5598
33.6289
33.6969
33.7638
33.8297
33.8944
33.9581
34.0208
34.0824
34.1429
34.2023
34.2608
34.3181
34.3744
34.4297
34.484
34.5372
34.5894
34.6406
34.6907
34.7398
34.7879
34.835
34.8811
34.9262
34.9702
35.0133
35.0554
35.0965
35.1365
35.1756
35.2137
35.2508
35.287
35.3221
35.3563
35.3895
35.4217
35.453
35.4833
35.5126
35.5409
35.5683
35.5948
35.6202
35.6447
35.6683
35.6909
35.7125
35.7332
35.753
35.7718
35.7896
35.8065
35.8225
35.8375
35.8515
35.8647
35.8769
35.8881
35.8984
35.9078
35.9162
35.9237
35.9302
35.9359
35.9405
35.9443
35.9471
35.949
35.9499
-2.21545
-2.21498
-2.21408
-2.2127
-2.21082
-2.20839
-2.20538
-2.20171
-2.19734
-2.19217
-2.18613
-2.17913
-2.17107
-2.16184
-2.15135
-2.13946
-2.12607
-2.11106
-2.09429
-2.07565
-2.05501
-2.03224
-2.00722
-1.97984
-1.94996
-1.91749
-1.88229
-1.84428
-1.80335
-1.7594
-1.71235
-1.66212
-1.60864
-1.55184
-1.49167
-1.42807
-1.36102
-1.29047
-1.21639
-1.13876
-1.05756
-0.972782
-0.884411
-0.792441
-0.696869
-0.597691
-0.494908
-0.388522
-0.278536
-0.164956
-0.0477882
0.072957
0.197269
0.325133
0.456533
0.591449
0.729859
0.871737
1.01705
1.16577
1.31786
1.47328
1.63199