/*--------------------------------*- C++ -*----------------------------------*\
| =========                 |                                                 |
| \\      /  F ield         | OpenFOAM: The Open Source CFD Toolbox           |
|  \\    /   O peration     | Version:  2212                                  |
|   \\  /    A nd           | Website:  www.openfoam.com                      |
|    \\/     M anipulation  |                                                 |
\*---------------------------------------------------------------------------*/
FoamFile
{
    version     2.0;
    format      ascii;
    arch        "LSB;label=32;scalar=64";
    class       surfaceScalarField;
    location    "210";
    object      phi;
}
// * * * * * * * * * * * * * * * * * * * * * * * * * * * * * * * * * * * * * //

dimensions      [1 0 -1 0 0 0 0];

oriented        oriented;

internalField   nonuniform List<scalar> 
408640
(
-1619.03
1617.77
-3236.98
1617.58
-4851.92
1614.56
-6461.53
1609.24
-8063.52
1601.62
-9655.54
1591.64
-11235.2
1579.26
-12800.1
1564.49
-14347.9
1547.42
-15876.6
1528.22
-17384.1
1507.1
-18868.8
1484.25
-20329.1
1459.86
-21763.6
1434.04
-23170.9
1406.88
-24549.9
1378.48
-25899.3
1348.98
-27218.3
1318.52
-28506
1287.29
-29761.9
1255.47
-30985.6
1223.26
-32176.9
1190.82
-33335.6
1158.34
-34462
1125.98
-35556.3
1093.86
-36618.8
1062.11
-37650
1030.81
-38650.4
1000.02
-39620.5
969.785
-40561
940.12
-41472.3
911.036
-42355.2
882.531
-43210.1
854.597
-44037.6
827.215
-44838.3
800.363
-45612.6
774.013
-46361
748.137
-47084
722.705
-47781.9
697.688
-48455.3
673.062
-49104.3
648.803
-49729.4
624.893
-50331
601.313
-50909.3
578.049
-51464.6
555.088
-51997.2
532.422
-52507.5
510.043
-52995.6
487.945
-53462
466.126
-53906.7
444.585
-54330.2
423.322
-54732.7
402.338
-55114.6
381.635
-55475.9
361.216
-55817.2
341.083
-56138.6
321.24
-56440.4
301.688
-56722.9
282.433
-56986.5
263.475
-57231.5
244.818
-57458.1
226.465
-57666.6
208.418
-57857.3
190.678
-58030.7
173.25
-58186.9
156.133
-58326.3
139.33
-58449.2
122.842
-58555.9
106.67
-58646.8
90.8155
-58722.1
75.279
-58782.2
60.0611
-58827.4
45.162
-58858
30.5819
-58874.4
16.3206
-58876.8
2.37794
-58865.5
-11.2467
-58841
-24.554
-58803.4
-37.5448
-58753.2
-50.2204
-58690.6
-62.582
-58615.9
-74.631
-58529.5
-86.3693
-58431.6
-97.7986
-58322.7
-108.921
-58202.9
-119.739
-58072.6
-130.254
-57932
-140.47
-57781.5
-150.388
-57621.4
-160.013
-57452
-169.346
-57273.5
-178.391
-57086.3
-187.151
-56890.5
-195.63
-56686.6
-203.83
-56474.7
-211.757
-56255.1
-219.412
-56028.2
-226.801
-55794.1
-233.927
-55553.2
-240.793
-55305.6
-247.405
-55051.7
-253.765
-54791.7
-259.879
-54525.7
-265.751
-54254.2
-271.384
-53977.2
-276.783
-53695.1
-281.953
-53408
-286.897
-53116.1
-291.621
-52819.8
-296.128
-52519.2
-300.423
-52214.4
-304.511
-51905.8
-308.396
-51593.5
-312.082
-51277.7
-315.574
-50958.6
-318.877
-50636.3
-321.994
-50311.2
-324.93
-49983.2
-327.69
-49652.7
-330.278
-49319.7
-332.698
-48984.5
-334.954
-48647.2
-337.051
-48307.9
-338.994
-47966.8
-340.785
-47624.1
-342.43
-47279.9
-343.932
-46934.3
-345.295
-46587.5
-346.524
-46239.5
-347.622
-45890.6
-348.594
-45540.9
-349.442
-45190.4
-350.171
-44839.3
-350.785
-44487.7
-351.287
-44135.7
-351.681
-43783.4
-351.97
-43430.9
-352.158
-43078.3
-352.248
-42725.8
-352.244
-42373.3
-352.148
-42021
-351.964
-41668.9
-351.696
-41317.2
-351.346
-40966
-350.917
-40615.2
-350.412
-40265
-349.834
-39915.5
-349.187
-39566.7
-348.472
-39218.6
-347.692
-38871.4
-346.85
-38525.1
-345.95
-38179.7
-344.992
-37835.4
-343.98
-37492.1
-342.915
-37150
-341.801
-36809
-340.64
-36469.2
-339.433
-36130.6
-338.184
-35793.4
-336.893
-35457.4
-335.564
-35122.9
-334.197
-34789.7
-332.796
-34458
-331.361
-34127.7
-329.895
-33799
-328.4
-33471.8
-326.876
-33146.1
-325.327
-32822
-323.753
-32499.4
-322.156
-32178.6
-320.538
-31859.3
-318.9
-31541.7
-317.243
-31225.8
-315.569
-30911.6
-313.88
-30599
-312.176
-30288.2
-310.458
-29979.2
-308.729
-29671.8
-306.989
-29366.3
-305.239
-29062.5
-303.481
-28760.4
-301.715
-28460.1
-299.943
-28161.7
-298.165
-27865
-296.383
-27570.1
-294.597
-27276.9
-292.808
-26985.6
-291.018
-26696.1
-289.227
-26408.4
-287.435
-26122.4
-285.644
-25838.3
-283.854
-25555.9
-282.067
-25275.4
-280.282
-24996.6
-278.5
-24719.6
-276.722
-24444.4
-274.949
-24171
-273.182
-23899.3
-271.42
-23629.4
-269.664
-23361.2
-267.915
-23094.8
-266.174
-22830.2
-264.44
-22567.2
-262.715
-22306
-260.998
-22046.5
-259.291
-21788.7
-257.593
-21532.6
-255.904
-21278.2
-254.227
-21025.5
-252.559
-20774.4
-250.903
-20525
-249.258
-20277.2
-247.625
-20031
-246.003
-19786.5
-244.394
-19543.6
-242.797
-19302.2
-241.213
-19062.5
-239.641
-18824.3
-238.083
-18587.6
-236.538
-18352.5
-235.006
-18119
-233.489
-17886.9
-231.985
-17656.4
-230.495
-17427.3
-229.019
-17199.7
-227.558
-16973.5
-226.111
-16748.8
-224.679
-16525.5
-223.262
-16303.7
-221.859
-16083.2
-220.472
-15864.1
-219.099
-15646.4
-217.742
-15430
-216.4
-15214.9
-215.073
-15001.2
-213.762
-14788.8
-212.466
-14577.7
-211.186
-14367.8
-209.921
-14159.3
-208.672
-13951.9
-207.439
-13745.8
-206.221
-13540.9
-205.019
-13337.2
-203.833
-13134.6
-202.663
-12933.3
-201.509
-12733
-200.37
-12534
-199.247
-12336
-198.141
-12139.1
-197.05
-11943.3
-195.975
-11748.6
-194.916
-11554.9
-193.872
-11362.3
-192.845
-11170.7
-191.834
-10980.1
-190.838
-10790.5
-189.859
-10601.9
-188.895
-10414.2
-187.947
-10227.4
-187.015
-10041.6
-186.099
-9856.73
-185.198
-9672.72
-184.314
-9489.58
-183.445
-9307.32
-182.592
-9125.89
-181.754
-8945.3
-180.932
-8765.52
-180.126
-8586.55
-179.336
-8408.35
-178.561
-8230.93
-177.802
-8054.26
-177.058
-7878.32
-176.33
-7703.1
-175.617
-7528.59
-174.92
-7354.77
-174.238
-7181.63
-173.571
-7009.14
-172.92
-6837.3
-172.284
-6666.09
-171.664
-6495.49
-171.059
-6325.48
-170.469
-6156.06
-169.894
-5987.2
-169.335
-5818.9
-168.79
-5651.13
-168.261
-5483.89
-167.747
-5317.15
-167.247
-5150.9
-166.763
-4985.12
-166.294
-4819.81
-165.84
-4654.94
-165.401
-4490.5
-164.977
-4326.47
-164.567
-4162.85
-164.173
-3999.61
-163.793
-3836.74
-163.428
-3674.22
-163.078
-3512.05
-162.743
-3350.2
-162.422
-3188.66
-162.116
-3027.42
-161.825
-2866.45
-161.549
-2705.76
-161.287
-2545.31
-161.04
-2385.1
-160.807
-2225.11
-160.589
-2065.32
-160.386
-1905.73
-160.198
-1746.31
-160.024
-1587.06
-159.864
-1427.95
-159.72
-1268.97
-159.59
-1110.11
-159.475
-951.352
-159.376
-792.677
-159.292
-634.071
-159.225
-475.517
-159.174
-316.998
-159.14
-158.497
-159.121
-159.118
-1608.27
3225.64
-3215.8
3224.71
-4820.43
3218.8
-6419.95
3208.37
-8012.26
3193.53
-9595.15
3174.13
-11166.4
3150.12
-12723.8
3121.47
-14265.2
3088.37
-15788.5
3051.11
-17291.9
3010.06
-18773.7
2965.58
-20232.3
2917.98
-21666.2
2867.48
-23074
2814.24
-24454.5
2758.45
-25806.3
2700.35
-27128.5
2640.24
-28420.2
2578.45
-29680.5
2515.35
-30909
2451.3
-32105.3
2386.68
-33269.2
2321.82
-34400.7
2257.05
-35499.9
2192.66
-36567.1
2128.9
-37602.6
2065.96
-38607
2003.97
-39580.6
1943.04
-40524
1883.23
-41437.9
1824.57
-42322.8
1767.08
-43179.2
1710.75
-44007.9
1655.55
-44809.3
1601.46
-45584
1548.42
-46332.5
1496.37
-47055.3
1445.25
-47752.9
1395.01
-48425.7
1345.59
-49074.1
1296.94
-49698.4
1249.02
-50299.1
1201.78
-50876.5
1155.21
-51430.9
1109.26
-51962.6
1063.91
-52471.9
1019.14
-52959.2
974.952
-53424.6
931.323
-53868.4
888.254
-54291
845.742
-54692.6
803.791
-55073.6
762.403
-55434.1
721.583
-55774.5
681.337
-56095.1
641.669
-56396.1
602.585
-56677.9
564.093
-56940.8
526.197
-57185
488.902
-57410.8
452.215
-57618.7
416.14
-57808.8
380.681
-57981.4
345.842
-58137
311.627
-58275.8
278.04
-58398.1
245.083
-58504.2
212.758
-58594.6
181.068
-58669.3
150.014
-58728.9
119.597
-58773.6
89.8173
-58803.7
60.6755
-58819.6
32.1715
-58821.5
4.30444
-58809.8
-22.9266
-58784.9
-49.5231
-58746.9
-75.4868
-58696.3
-100.82
-58633.3
-125.525
-58558.3
-149.606
-58471.6
-173.065
-58373.4
-195.906
-58264.2
-218.134
-58144.1
-239.752
-58013.5
-260.766
-57872.7
-281.18
-57722
-301.001
-57561.7
-320.233
-57392.1
-338.883
-57213.4
-356.957
-57026
-374.462
-56830.1
-391.403
-56626.1
-407.789
-56414.1
-423.627
-56194.4
-438.923
-55967.4
-453.685
-55733.3
-467.922
-55492.3
-481.641
-55244.7
-494.85
-54990.7
-507.557
-54730.7
-519.771
-54464.7
-531.501
-54193.2
-542.754
-53916.2
-553.539
-53634.1
-563.866
-53347.1
-573.742
-53055.3
-583.177
-52759.1
-592.18
-52458.5
-600.759
-52153.9
-608.923
-51845.4
-616.681
-51533.2
-624.043
-51217.5
-631.017
-50898.5
-637.611
-50576.5
-643.836
-50251.4
-649.698
-49923.7
-655.208
-49593.3
-660.375
-49260.5
-665.206
-48925.5
-669.71
-48588.4
-673.896
-48249.3
-677.772
-47908.5
-681.346
-47566
-684.628
-47222
-687.624
-46876.7
-690.344
-46530.1
-692.795
-46182.5
-694.984
-45833.8
-696.92
-45484.3
-698.611
-45134.1
-700.064
-44783.3
-701.285
-44432
-702.284
-44080.3
-703.066
-43728.3
-703.639
-43376.1
-704.01
-43023.9
-704.185
-42671.6
-704.172
-42319.4
-703.976
-41967.4
-703.605
-41615.7
-703.064
-41264.4
-702.36
-40913.5
-701.498
-40563
-700.485
-40213.2
-699.327
-39864
-698.028
-39515.5
-696.595
-39167.8
-695.033
-38821
-693.348
-38475
-691.543
-38130
-689.626
-37786
-687.599
-37443.1
-685.469
-37101.3
-683.239
-36760.7
-680.914
-36421.3
-678.5
-36083.1
-675.999
-35746.2
-673.417
-35410.6
-670.756
-35076.5
-668.023
-34743.7
-665.219
-34412.3
-662.349
-34082.4
-659.416
-33754.1
-656.425
-33427.2
-653.378
-33101.9
-650.279
-32778.2
-647.131
-32456
-643.937
-32135.5
-640.7
-31816.6
-637.424
-31499.4
-634.111
-31183.9
-630.763
-30870
-627.384
-30557.9
-623.977
-30247.4
-620.542
-29938.8
-617.084
-29631.8
-613.605
-29326.6
-610.106
-29023.2
-606.59
-28721.5
-603.059
-28421.6
-599.515
-28123.5
-595.961
-27827.1
-592.397
-27532.6
-588.826
-27239.9
-585.25
-26948.9
-581.67
-26659.7
-578.089
-26372.4
-574.507
-26086.8
-570.926
-25803
-567.347
-25521
-563.773
-25240.8
-560.205
-24962.4
-556.643
-24685.8
-553.089
-24410.9
-549.544
-24137.8
-546.01
-23866.5
-542.488
-23597
-538.978
-23329.2
-535.482
-23063.1
-532.001
-22798.8
-528.535
-22536.2
-525.085
-22275.3
-521.654
-22016.2
-518.24
-21758.7
-514.846
-21502.9
-511.471
-21248.9
-508.117
-20996.5
-504.784
-20745.7
-501.473
-20496.6
-498.185
-20249.2
-494.92
-20003.4
-491.678
-19759.2
-488.461
-19516.5
-485.269
-19275.5
-482.102
-19036.1
-478.961
-18798.2
-475.846
-18561.9
-472.757
-18327.1
-469.696
-18093.9
-466.662
-17862.1
-463.656
-17631.9
-460.678
-17403.1
-457.728
-17175.8
-454.807
-16950
-451.915
-16725.6
-449.053
-16502.6
-446.22
-16281
-443.416
-16060.8
-440.643
-15842
-437.899
-15624.6
-435.186
-15408.5
-432.504
-15193.8
-429.852
-14980.4
-427.231
-14768.2
-424.641
-14557.4
-422.082
-14347.8
-419.554
-14139.5
-417.058
-13932.5
-414.592
-13726.6
-412.159
-13522
-409.756
-13318.6
-407.386
-13116.3
-405.047
-12915.2
-402.739
-12715.3
-400.464
-12516.5
-398.22
-12318.8
-396.007
-12122.2
-393.827
-11926.7
-391.678
-11732.2
-389.561
-11538.8
-387.476
-11346.5
-385.423
-11155.1
-383.402
-10964.8
-381.412
-10775.4
-379.454
-10587.1
-377.528
-10399.6
-375.633
-10213.2
-373.77
-10027.6
-371.939
-9842.96
-370.139
-9659.21
-368.371
-9476.33
-366.634
-9294.32
-364.929
-9113.15
-363.255
-8932.8
-361.613
-8753.28
-360.002
-8574.55
-358.422
-8396.61
-356.873
-8219.43
-355.355
-8043
-353.869
-7867.31
-352.413
-7692.34
-350.989
-7518.07
-349.595
-7344.49
-348.232
-7171.59
-346.9
-6999.35
-345.599
-6827.74
-344.328
-6656.77
-343.088
-6486.4
-341.879
-6316.64
-340.7
-6147.45
-339.551
-5978.83
-338.433
-5810.76
-337.344
-5643.23
-336.287
-5476.22
-335.259
-5309.71
-334.261
-5143.69
-333.294
-4978.15
-332.356
-4813.07
-331.448
-4648.43
-330.571
-4484.22
-329.723
-4320.42
-328.904
-4157.03
-328.116
-3994.01
-327.357
-3831.37
-326.628
-3669.09
-325.928
-3507.14
-325.258
-3345.51
-324.617
-3184.2
-324.006
-3023.18
-323.424
-2862.44
-322.871
-2701.97
-322.348
-2541.75
-321.854
-2381.76
-321.39
-2221.99
-320.954
-2062.43
-320.548
-1903.06
-320.171
-1743.87
-319.823
-1584.84
-319.505
-1425.95
-319.216
-1267.2
-318.956
-1108.56
-318.727
-950.023
-318.528
-791.571
-318.361
-633.188
-318.226
-474.856
-318.124
-316.559
-318.056
-158.28
-318.02
-318.019
-1594.9
4820.12
-3188.94
4818.33
-4780.2
4809.65
-6366.7
4794.46
-7946.51
4772.92
-9517.64
4744.82
-11078.1
4710.09
-12625.7
4668.69
-14158.7
4620.86
-15675
4566.97
-17173
4507.51
-18650.8
4442.96
-20107.1
4373.72
-21540.2
4300.07
-22948.7
4222.24
-24331.2
4140.48
-25686.5
4055.1
-27013.2
3966.52
-28310.5
3875.22
-29577.4
3781.71
-30813.1
3686.54
-32017.1
3590.22
-33189
3493.28
-34328.7
3396.23
-35435.9
3299.5
-36510.9
3203.5
-37553.9
3108.52
-38565.2
3014.83
-39545.1
2922.6
-40494.2
2831.96
-41413
2743.02
-42302.1
2655.82
-43162.1
2570.38
-43993.5
2486.69
-44797.1
2404.72
-45573.3
2324.4
-46322.9
2245.65
-47046.3
2168.39
-47744.1
2092.53
-48416.8
2017.99
-49064.8
1944.69
-49688.6
1872.55
-50288.5
1801.5
-50865
1731.49
-51418.5
1662.47
-51949.2
1594.38
-52457.4
1527.19
-52943.6
1460.89
-53407.9
1395.44
-53850.6
1330.84
-54272.2
1267.08
-54672.7
1204.17
-55052.6
1142.11
-55412.1
1080.9
-55751.5
1020.56
-56071
961.08
-56371.1
902.48
-56651.9
844.767
-56913.7
787.949
-57157
732.033
-57381.9
677.029
-57588.8
622.942
-57778
569.779
-57949.8
517.548
-58104.5
466.253
-58242.4
415.898
-58363.9
366.489
-58469.2
318.029
-58558.7
270.521
-58632.7
223.966
-58691.5
178.367
-58735.5
133.725
-58764.9
90.0391
-58780
47.31
-58781.3
5.53641
-58768.9
-35.2832
-58743.3
-75.1509
-58704.7
-114.07
-58653.5
-152.042
-58589.9
-189.074
-58514.3
-225.167
-58427
-260.329
-58328.3
-294.564
-58218.5
-327.879
-58097.9
-360.28
-57966.8
-391.774
-57825.6
-422.369
-57674.4
-452.074
-57513.7
-480.896
-57343.6
-508.845
-57164.5
-535.93
-56976.7
-562.162
-56780.5
-587.549
-56576
-612.102
-56363.7
-635.833
-56143.7
-658.752
-55916.4
-680.871
-55682
-702.202
-55440.7
-722.756
-55192.9
-742.546
-54938.7
-761.583
-54678.4
-779.881
-54412.3
-797.453
-54140.6
-814.31
-53863.4
-830.465
-53581.2
-845.933
-53294
-860.726
-53002.1
-874.858
-52705.7
-888.341
-52405.1
-901.189
-52100.4
-913.415
-51791.8
-925.033
-51479.6
-936.056
-51163.9
-946.497
-50844.9
-956.371
-50522.8
-965.689
-50197.7
-974.465
-49870
-982.713
-49539.7
-990.445
-49206.9
-997.675
-48871.9
-1004.41
-48534.9
-1010.68
-48195.9
-1016.48
-47855.2
-1021.82
-47512.8
-1026.73
-47168.9
-1031.21
-46823.7
-1035.28
-46477.2
-1038.94
-46129.7
-1042.21
-45781.2
-1045.1
-45431.9
-1047.63
-45081.8
-1049.79
-44731.2
-1051.61
-44380.1
-1053.1
-44028.5
-1054.26
-43676.7
-1055.11
-43324.8
-1055.66
-42972.7
-1055.91
-42620.7
-1055.88
-42268.7
-1055.58
-41917
-1055.01
-41565.5
-1054.19
-41214.4
-1053.13
-40863.7
-1051.83
-40513.5
-1050.3
-40164
-1048.56
-39815
-1046.6
-39466.8
-1044.45
-39119.4
-1042.1
-38772.8
-1039.56
-38427.2
-1036.85
-38082.5
-1033.97
-37738.8
-1030.93
-37396.2
-1027.72
-37054.7
-1024.38
-36714.3
-1020.88
-36375.2
-1017.26
-36037.3
-1013.5
-35700.8
-1009.63
-35365.5
-1005.63
-35031.7
-1001.53
-34699.2
-997.32
-34368.2
-993.013
-34038.6
-988.612
-33710.6
-984.122
-33384
-979.55
-33059.1
-974.899
-32735.7
-970.175
-32413.9
-965.383
-32093.7
-960.527
-31775.1
-955.611
-31458.3
-950.64
-31143
-945.618
-30829.5
-940.549
-30517.7
-935.437
-30207.7
-930.285
-29899.3
-925.098
-29592.7
-919.878
-29287.8
-914.63
-28984.7
-909.356
-28683.4
-904.06
-28383.9
-898.744
-28086.1
-893.413
-27790.1
-888.068
-27495.9
-882.712
-27203.5
-877.349
-26912.9
-871.98
-26624.1
-866.608
-26337
-861.236
-26051.8
-855.866
-25768.4
-850.5
-25486.7
-845.14
-25206.8
-839.788
-24928.8
-834.447
-24652.5
-829.118
-24378
-823.802
-24105.2
-818.503
-23834.2
-813.221
-23565
-807.957
-23297.5
-802.715
-23031.8
-797.494
-22767.8
-792.298
-22505.6
-787.126
-22245
-781.98
-21986.2
-776.861
-21729.1
-771.772
-21473.6
-766.712
-21219.9
-761.682
-20967.8
-756.685
-20717.4
-751.721
-20468.6
-746.791
-20221.5
-741.895
-19976
-737.035
-19732.1
-732.211
-19489.8
-727.425
-19249.1
-722.677
-19010
-717.967
-18772.4
-713.297
-18536.4
-708.666
-18301.9
-704.076
-18069
-699.528
-17837.5
-695.021
-17607.6
-690.556
-17379.1
-686.134
-17152.1
-681.755
-16926.6
-677.419
-16702.5
-673.127
-16479.8
-668.88
-16258.5
-664.677
-16038.7
-660.519
-15820.2
-656.406
-15603
-652.339
-15387.2
-648.317
-15172.8
-644.342
-14959.6
-640.412
-14747.8
-636.529
-14537.2
-632.693
-14328
-628.903
-14120
-625.161
-13913.2
-621.465
-13707.6
-617.816
-13503.3
-614.215
-13300.1
-610.661
-13098.1
-607.155
-12897.3
-603.696
-12697.6
-600.284
-12499.1
-596.92
-12301.7
-593.604
-12105.3
-590.335
-11910.1
-587.114
-11715.9
-583.941
-11522.8
-580.815
-11330.7
-577.737
-11139.6
-574.707
-10949.5
-571.724
-10760.5
-568.789
-10572.3
-565.901
-10385.2
-563.061
-10199
-560.268
-10013.7
-557.523
-9829.26
-554.825
-9645.76
-552.175
-9463.13
-549.571
-9281.37
-547.015
-9100.45
-544.506
-8920.36
-542.044
-8741.08
-539.629
-8562.6
-537.26
-8384.9
-534.939
-8207.97
-532.664
-8031.79
-530.435
-7856.34
-528.254
-7681.61
-526.118
-7507.59
-524.029
-7334.25
-521.986
-7161.59
-519.989
-6989.58
-518.039
-6818.22
-516.134
-6647.48
-514.275
-6477.35
-512.462
-6307.82
-510.694
-6138.87
-508.972
-5970.49
-507.296
-5802.66
-505.665
-5635.36
-504.079
-5468.57
-502.539
-5302.3
-501.043
-5136.51
-499.593
-4971.2
-498.187
-4806.35
-496.827
-4641.94
-495.511
-4477.96
-494.24
-4314.39
-493.013
-4151.22
-491.831
-3988.44
-490.694
-3826.02
-489.6
-3663.96
-488.551
-3502.24
-487.547
-3340.84
-486.586
-3179.75
-485.67
-3018.96
-484.798
-2858.45
-483.97
-2698.2
-483.185
-2538.2
-482.445
-2378.43
-481.748
-2218.89
-481.096
-2059.55
-480.487
-1900.4
-479.921
-1741.43
-479.4
-1582.62
-478.923
-1423.96
-478.489
-1265.43
-478.101
-1107.01
-477.757
-948.697
-477.459
-790.466
-477.208
-632.304
-477.006
-474.194
-476.853
-316.118
-476.751
-158.058
-476.699
-476.697
-1577.35
6397
-3153.78
6394.31
-4727.61
6383.01
-6297.12
6363.49
-7860.6
6335.92
-9416.3
6300.04
-10962.5
6255.76
-12497.3
6203.02
-14019
6142.1
-15526
6073.4
-17016.5
5997.48
-18488.9
5914.86
-19941.7
5826
-21373.4
5731.22
-22782.5
5630.76
-24167.5
5524.91
-25527
5414.06
-26859.7
5298.68
-28164.4
5179.37
-29440
5056.76
-30685.5
4931.54
-31900.2
4804.37
-33083.4
4675.96
-34234.6
4546.95
-35353.5
4417.97
-36440
4289.56
-37494.1
4162.19
-38516
4036.23
-39505.8
3911.98
-40463.9
3789.69
-41390.8
3669.54
-42287
3551.66
-43153.1
3436.12
-43989.7
3322.96
-44797.4
3212.17
-45577
3103.69
-46329.1
2997.43
-47054.3
2893.31
-47753.2
2791.2
-48426.5
2690.99
-49074.7
2592.58
-49698.2
2495.85
-50297.6
2400.69
-50873.4
2307.02
-51425.9
2214.74
-51955.5
2123.78
-52462.6
2034.08
-52947.5
1945.59
-53410.5
1858.28
-53852
1772.12
-54272.2
1687.11
-54671.5
1603.24
-55050
1520.5
-55408.2
1438.91
-55746.3
1358.47
-56064.5
1279.2
-56363.3
1201.09
-56642.8
1124.17
-56903.4
1048.44
-57145.4
973.921
-57369.1
900.613
-57574.8
828.529
-57762.8
757.678
-57933.4
688.069
-58087
619.709
-58223.7
552.604
-58344.1
486.759
-58448.3
422.18
-58536.7
358.87
-58609.6
296.832
-58667.3
236.069
-58710.2
176.582
-58738.6
118.37
-58752.7
61.4342
-58753
5.77262
-58739.6
-48.6167
-58713
-101.737
-58673.5
-153.591
-58621.4
-204.184
-58556.9
-253.521
-58480.4
-301.609
-58392.2
-348.453
-58292.7
-394.061
-58182.1
-438.443
-58060.7
-481.606
-57928.8
-523.56
-57786.8
-564.315
-57634.9
-603.883
-57473.5
-642.274
-57302.7
-679.501
-57123
-715.577
-56934.5
-750.513
-56737.6
-784.324
-56532.6
-817.024
-56319.7
-848.628
-56099.2
-879.149
-55871.3
-908.604
-55636.3
-937.008
-55394.6
-964.377
-55146.2
-990.726
-54891.6
-1016.07
-54630.9
-1040.43
-54364.3
-1063.83
-54092.2
-1086.27
-53814.7
-1107.77
-53532.1
-1128.36
-53244.5
-1148.05
-52952.3
-1166.86
-52655.6
-1184.81
-52354.7
-1201.9
-52049.7
-1218.17
-51740.9
-1233.63
-51428.4
-1248.3
-51112.5
-1262.19
-50793.3
-1275.32
-50471.1
-1287.72
-50145.9
-1299.39
-49818
-1310.36
-49487.5
-1320.64
-49154.7
-1330.25
-48819.6
-1339.21
-48482.5
-1347.54
-48143.4
-1355.24
-47802.6
-1362.35
-47460.2
-1368.87
-47116.3
-1374.82
-46771.1
-1380.21
-46424.6
-1385.08
-46077.1
-1389.41
-45728.7
-1393.25
-45379.4
-1396.59
-45029.4
-1399.46
-44678.9
-1401.87
-44327.8
-1403.83
-43976.4
-1405.36
-43624.7
-1406.48
-43272.8
-1407.19
-42920.9
-1407.51
-42569
-1407.45
-42217.2
-1407.03
-41865.6
-1406.26
-41514.3
-1405.16
-41163.4
-1403.72
-40812.9
-1401.98
-40462.9
-1399.93
-40113.5
-1397.59
-39764.8
-1394.97
-39416.8
-1392.08
-39069.6
-1388.94
-38723.3
-1385.55
-38377.9
-1381.92
-38033.4
-1378.07
-37690
-1374
-37347.6
-1369.72
-37006.4
-1365.25
-36666.3
-1360.59
-36327.5
-1355.74
-35989.9
-1350.73
-35653.6
-1345.55
-35318.6
-1340.22
-34985.1
-1334.74
-34652.9
-1329.13
-34322.2
-1323.38
-33992.9
-1317.5
-33665.2
-1311.51
-33338.9
-1305.41
-33014.3
-1299.21
-32691.2
-1292.9
-32369.7
-1286.51
-32049.9
-1280.03
-31731.6
-1273.47
-31415.1
-1266.84
-31100.2
-1260.14
-30787
-1253.38
-30475.6
-1246.56
-30165.8
-1239.69
-29857.8
-1232.77
-29551.5
-1225.81
-29247
-1218.81
-28944.3
-1211.78
-28643.3
-1204.72
-28344.1
-1197.63
-28046.6
-1190.52
-27751
-1183.39
-27457.1
-1176.25
-27165.1
-1169.1
-26874.8
-1161.94
-26586.3
-1154.78
-26299.6
-1147.62
-26014.8
-1140.46
-25731.7
-1133.31
-25450.4
-1126.16
-25170.9
-1119.02
-24893.1
-1111.9
-24617.2
-1104.8
-24343
-1097.71
-24070.6
-1090.65
-23800
-1083.61
-23531.1
-1076.59
-23264
-1069.6
-22998.6
-1062.64
-22734.9
-1055.72
-22473
-1048.82
-22212.8
-1041.96
-21954.3
-1035.14
-21697.6
-1028.36
-21442.5
-1021.61
-21189
-1014.91
-20937.3
-1008.25
-20687.2
-1001.63
-20438.8
-995.061
-20192
-988.535
-19946.8
-982.058
-19703.3
-975.629
-19461.3
-969.25
-19220.9
-962.921
-18982.1
-956.644
-18744.9
-950.42
-18509.2
-944.249
-18275.1
-938.132
-18042.5
-932.069
-17811.3
-926.063
-17581.7
-920.112
-17353.6
-914.219
-17126.9
-908.383
-16901.7
-902.605
-16677.9
-896.885
-16455.5
-891.225
-16234.6
-885.624
-16015
-880.083
-15796.8
-874.602
-15580
-869.182
-15364.5
-863.822
-15150.3
-858.524
-14937.5
-853.288
-14726
-848.114
-14515.7
-843.001
-14306.8
-837.951
-14099
-832.964
-13892.6
-828.039
-13687.3
-823.177
-13483.2
-818.378
-13280.4
-813.642
-13078.7
-808.969
-12878.2
-804.36
-12678.8
-799.814
-12480.5
-795.331
-12283.4
-790.912
-12087.4
-786.556
-11892.4
-782.264
-11698.5
-778.036
-11505.6
-773.87
-11313.8
-769.769
-11123
-765.731
-10933.2
-761.756
-10744.4
-757.845
-10556.6
-753.997
-10369.7
-750.213
-10183.8
-746.492
-9998.73
-742.834
-9814.61
-739.239
-9631.38
-735.707
-9449.03
-732.238
-9267.53
-728.832
-9086.88
-725.488
-8907.06
-722.208
-8728.04
-718.99
-8549.83
-715.834
-8372.39
-712.74
-8195.72
-709.709
-8019.8
-706.74
-7844.61
-703.833
-7670.14
-700.987
-7496.38
-698.204
-7323.3
-695.482
-7150.89
-692.821
-6979.14
-690.222
-6808.03
-687.684
-6637.55
-685.207
-6467.68
-682.791
-6298.4
-680.436
-6129.7
-678.142
-5961.57
-675.908
-5793.98
-673.734
-5626.93
-671.622
-5460.4
-669.569
-5294.37
-667.576
-5128.83
-665.644
-4963.77
-663.771
-4799.16
-661.958
-4635
-660.205
-4471.26
-658.511
-4307.94
-656.877
-4145.01
-655.302
-3982.47
-653.786
-3820.3
-652.33
-3658.48
-650.932
-3497
-649.594
-3335.85
-648.314
-3175
-647.093
-3014.44
-645.931
-2854.17
-644.827
-2694.16
-643.782
-2534.4
-642.796
-2374.88
-641.868
-2215.57
-640.998
-2056.47
-640.186
-1897.56
-639.433
-1738.83
-638.739
-1580.26
-638.102
-1421.83
-637.525
-1263.54
-637.007
-1105.36
-636.549
-947.279
-636.152
-789.286
-635.818
-631.361
-635.548
-473.487
-635.345
-315.648
-635.209
-157.826
-635.141
-635.142
-1559.1
7955.58
-3117.21
7951.9
-4672.9
7938.17
-6224.68
7914.75
-7771.07
7881.77
-9310.55
7838.98
-10841.6
7786.24
-12362.6
7723.52
-13872.2
7651.06
-15368.6
7569.28
-16850.5
7478.76
-18316.3
7380.04
-19764.5
7273.59
-21193.6
7159.71
-22602.1
7038.68
-23988.6
6910.78
-25351.6
6776.42
-26689.6
6636.13
-28001.4
6490.57
-29285.7
6340.47
-30541.4
6186.61
-31767.4
6029.79
-32962.8
5870.83
-34126.9
5710.56
-35259.2
5549.73
-36359.2
5389.06
-37426.7
5229.16
-38461.5
5070.57
-39463.7
4913.73
-40433.4
4759.03
-41371.1
4606.76
-42277
4457.17
-43151.7
4310.45
-43995.7
4166.69
-44809.9
4025.96
-45594.7
3888.22
-46351
3753.43
-47079.5
3621.48
-47780.8
3492.26
-48455.7
3365.62
-49104.8
3241.43
-49728.8
3119.54
-50328.1
2999.81
-50903.5
2882.09
-51455.2
2766.27
-51983.9
2652.21
-52489.8
2539.82
-52973.5
2429.02
-53435.1
2319.76
-53875.2
2211.98
-54293.9
2105.67
-54691.7
2000.8
-55068.7
1897.38
-55425.3
1795.39
-55761.9
1694.86
-56078.6
1595.79
-56375.9
1498.18
-56653.9
1402.06
-56913
1307.43
-57153.5
1214.31
-57375.7
1122.71
-57579.9
1032.64
-57766.4
944.115
-57935.6
857.141
-58087.7
771.729
-58223.1
687.886
-58342
605.621
-58444.8
524.937
-58531.8
445.841
-58603.4
368.336
-58659.8
292.425
-58701.3
218.109
-58728.4
145.389
-58741.2
74.2638
-58740.2
4.73233
-58725.6
-63.2082
-58697.8
-129.561
-58657
-194.332
-58603.7
-257.526
-58538
-319.149
-58460.4
-379.209
-58371.1
-437.715
-58270.4
-494.676
-58158.7
-550.102
-58036.2
-604.005
-57903.3
-656.397
-57760.3
-707.29
-57607.4
-756.698
-57444.9
-804.636
-57273.2
-851.118
-57092.6
-896.16
-56903.2
-939.778
-56705.4
-981.99
-56499.5
-1022.81
-56285.7
-1062.26
-56064.4
-1100.36
-55835.7
-1137.13
-55600
-1172.58
-55357.5
-1206.74
-55108.4
-1239.63
-54853.1
-1271.26
-54591.7
-1301.66
-54324.5
-1330.85
-54051.7
-1358.85
-53773.6
-1385.69
-53490.4
-1411.37
-53202.3
-1435.94
-52909.6
-1459.4
-52612.4
-1481.78
-52311
-1503.11
-52005.6
-1523.4
-51696.3
-1542.67
-51383.4
-1560.96
-51067.1
-1578.28
-50747.5
-1594.66
-50424.9
-1610.11
-50099.4
-1624.65
-49771.1
-1638.32
-49440.4
-1651.13
-49107.3
-1663.11
-48771.9
-1674.27
-48434.6
-1684.63
-48095.3
-1694.23
-47754.3
-1703.07
-47411.7
-1711.18
-47067.6
-1718.59
-46722.3
-1725.3
-46375.7
-1731.34
-46028.1
-1736.73
-45679.5
-1741.49
-45330.2
-1745.64
-44980.1
-1749.19
-44629.5
-1752.17
-44278.4
-1754.6
-43927
-1756.48
-43575.3
-1757.85
-43223.5
-1758.71
-42871.5
-1759.08
-42519.7
-1758.99
-42167.9
-1758.44
-41816.4
-1757.45
-41465.2
-1756.05
-41114.3
-1754.23
-40763.9
-1752.03
-40414.1
-1749.44
-40064.8
-1746.5
-39716.2
-1743.21
-39368.4
-1739.58
-39021.3
-1735.63
-38675.1
-1731.38
-38329.9
-1726.83
-37985.6
-1722
-37642.3
-1716.89
-37300.2
-1711.53
-36959.1
-1705.92
-36619.3
-1700.08
-36280.6
-1694.02
-35943.3
-1687.74
-35607.2
-1681.25
-35272.5
-1674.58
-34939.2
-1667.72
-34607.2
-1660.68
-34276.8
-1653.49
-33947.8
-1646.14
-33620.3
-1638.64
-33294.3
-1631
-32970
-1623.24
-32647.1
-1615.35
-32325.9
-1607.35
-32006.4
-1599.25
-31688.5
-1591.05
-31372.2
-1582.75
-31057.6
-1574.37
-30744.7
-1565.92
-30433.6
-1557.39
-30124.1
-1548.79
-29816.4
-1540.14
-29510.5
-1531.44
-29206.3
-1522.68
-28903.8
-1513.89
-28603.2
-1505.06
-28304.3
-1496.2
-28007.2
-1487.31
-27711.8
-1478.4
-27418.3
-1469.47
-27126.6
-1460.53
-26836.6
-1451.58
-26548.5
-1442.63
-26262.2
-1433.67
-25977.6
-1424.72
-25694.8
-1415.78
-25413.9
-1406.85
-25134.7
-1397.93
-24857.3
-1389.03
-24581.7
-1380.15
-24307.8
-1371.29
-24035.8
-1362.46
-23765.5
-1353.66
-23496.9
-1344.89
-23230.2
-1336.16
-22965.1
-1327.46
-22701.8
-1318.8
-22440.2
-1310.18
-22180.4
-1301.61
-21922.2
-1293.09
-21665.8
-1284.61
-21411
-1276.18
-21157.9
-1267.8
-20906.5
-1259.48
-20656.8
-1251.21
-20408.7
-1243
-20162.2
-1234.84
-19917.4
-1226.75
-19674.1
-1218.72
-19432.5
-1210.75
-19192.5
-1202.84
-18954
-1194.99
-18717.1
-1187.22
-18481.7
-1179.51
-18247.9
-1171.86
-18015.6
-1164.29
-17784.8
-1156.78
-17555.5
-1149.35
-17327.7
-1141.98
-17101.3
-1134.69
-16876.4
-1127.47
-16652.9
-1120.33
-16430.9
-1113.25
-16210.2
-1106.26
-15991
-1099.33
-15773.1
-1092.49
-15556.6
-1085.71
-15341.4
-1079.02
-15127.6
-1072.4
-14915.1
-1065.86
-14703.8
-1059.39
-14493.9
-1053
-14285.2
-1046.7
-14077.8
-1040.46
-13871.6
-1034.31
-13666.7
-1028.24
-13462.9
-1022.24
-13260.3
-1016.33
-13059
-1010.49
-12858.7
-1004.73
-12659.6
-999.05
-12461.7
-993.45
-12264.8
-987.929
-12069.1
-982.487
-11874.4
-977.125
-11680.8
-971.843
-11488.2
-966.64
-11296.7
-961.516
-11106.2
-956.471
-10916.7
-951.506
-10728.2
-946.62
-10540.6
-941.813
-10354
-937.086
-10168.3
-932.437
-9983.56
-927.867
-9799.72
-923.377
-9616.76
-918.964
-9434.68
-914.631
-9253.46
-910.376
-9073.08
-906.199
-8893.53
-902.101
-8714.78
-898.081
-8536.84
-894.139
-8359.67
-890.275
-8183.26
-886.488
-8007.61
-882.779
-7832.69
-879.147
-7658.48
-875.593
-7484.98
-872.116
-7312.16
-868.715
-7140.01
-865.392
-6968.52
-862.145
-6797.67
-858.975
-6627.45
-855.881
-6457.83
-852.863
-6288.81
-849.921
-6120.37
-847.055
-5952.49
-844.264
-5785.16
-841.55
-5618.36
-838.91
-5452.09
-836.346
-5286.31
-833.857
-5121.02
-831.443
-4956.21
-829.104
-4791.85
-826.839
-4627.94
-824.649
-4464.45
-822.533
-4301.37
-820.492
-4138.7
-818.525
-3976.4
-816.631
-3814.48
-814.812
-3652.91
-813.066
-3491.67
-811.394
-3330.76
-809.796
-3170.16
-808.271
-3009.85
-806.819
-2849.82
-805.441
-2690.05
-804.135
-2530.54
-802.903
-2371.25
-801.743
-2212.19
-800.657
-2053.34
-799.643
-1894.67
-798.703
-1736.18
-797.835
-1577.85
-797.04
-1419.66
-796.319
-1261.61
-795.672
-1103.67
-795.099
-945.835
-794.604
-788.082
-794.186
-630.398
-793.85
-472.765
-793.596
-315.165
-793.426
-157.583
-793.343
-793.343
-1538.93
9493.92
-3076.87
9489.25
-4612.59
9473.3
-6144.83
9446.4
-7672.32
9408.67
-9193.79
9359.83
-10707.9
9299.76
-12213.4
9228.38
-13708.9
9145.94
-15193.1
9052.82
-16664.6
8949.6
-18122
8836.78
-19563.9
8714.82
-20988.9
8584
-22395.5
8444.59
-23782.2
8296.85
-25147.7
8141.18
-26490.3
7978.13
-27808.8
7808.39
-29101.7
7632.73
-30367.8
7452
-31605.7
7267.09
-32814.4
7078.95
-33993
6888.48
-35140.4
6696.61
-36256.1
6504.17
-37339.4
6311.94
-38390
6120.63
-39407.6
5930.83
-40392.1
5743.09
-41343.7
5557.88
-42262.5
5375.59
-43149
5196.54
-44003.7
5020.95
-44827
4848.98
-45619.9
4680.7
-46382.8
4516.08
-47116.7
4355.08
-47822.4
4197.59
-48500.5
4043.47
-49151.9
3892.56
-49777.3
3744.7
-50377.4
3599.69
-50952.9
3457.35
-51504.4
3317.49
-52032.4
3179.95
-52537.3
3044.58
-53019.7
2911.24
-53480
2779.84
-53918.5
2650.32
-54335.7
2522.6
-54731.7
2396.68
-55107
2272.51
-55461.9
2150.11
-55796.6
2029.46
-56111.6
1910.58
-56407
1793.47
-56683.2
1678.15
-56940.5
1564.62
-57179.2
1452.91
-57399.7
1343.02
-57602.1
1234.97
-57786.9
1128.78
-57954.3
1024.45
-58104.6
922
-58238.2
821.432
-58355.4
722.758
-58456.5
625.984
-58541.9
531.117
-58611.7
438.16
-58666.5
347.116
-58706.4
257.989