/*--------------------------------*- C++ -*----------------------------------*\
| =========                 |                                                 |
| \\      /  F ield         | OpenFOAM: The Open Source CFD Toolbox           |
|  \\    /   O peration     | Version:  2212                                  |
|   \\  /    A nd           | Website:  www.openfoam.com                      |
|    \\/     M anipulation  |                                                 |
\*---------------------------------------------------------------------------*/
FoamFile
{
    version     2.0;
    format      ascii;
    arch        "LSB;label=32;scalar=64";
    class       volScalarField;
    location    "420";
    object      p_rgh;
}
// * * * * * * * * * * * * * * * * * * * * * * * * * * * * * * * * * * * * * //

dimensions      [1 -1 -2 0 0 0 0];

internalField   nonuniform List<scalar> 
204800
(
30.4415
30.4284
30.4022
30.3636
30.3125
30.2498
30.1756
30.0908
29.9959
29.8915
29.7783
29.657
29.5281
29.3922
29.25
29.1018
28.9483
28.7898
28.6267
28.4595
28.2885
28.1141
27.9366
27.7563
27.5735
27.3885
27.2016
27.013
26.823
26.6319
26.4398
26.2471
26.0539
25.8605
25.6671
25.4738
25.281
25.0887
24.8972
24.7066
24.5171
24.3289
24.1422
23.9571
23.7737
23.5923
23.4128
23.2356
23.0606
22.8881
22.718
22.5507
22.3861
22.2243
22.0655
21.9098
21.7571
21.6077
21.4616
21.3188
21.1794
21.0435
20.9112
20.7824
20.6573
20.5358
20.4181
20.3041
20.1939
20.0875
19.9849
19.8862
19.7914
19.7004
19.6133
19.5301
19.4508
19.3754
19.3039
19.2362
19.1724
19.1124
19.0563
19.0039
18.9554
18.9106
18.8695
18.8321
18.7984
18.7684
18.7419
18.719
18.6996
18.6836
18.6711
18.662
18.6563
18.6538
18.6546
18.6585
18.6657
18.6759
18.6891
18.7053
18.7245
18.7465
18.7713
18.7989
18.8292
18.8621
18.8977
18.9357
18.9763
19.0192
19.0645
19.1121
19.1619
19.214
19.2681
19.3243
19.3825
19.4427
19.5047
19.5686
19.6343
19.7016
19.7707
19.8414
19.9136
19.9873
20.0625
20.139
20.2169
20.2961
20.3766
20.4582
20.541
20.6249
20.7098
20.7957
20.8825
20.9703
21.0589
21.1483
21.2386
21.3295
21.4211
21.5134
21.6062
21.6996
21.7936
21.888
21.9829
22.0782
22.1739
22.2699
22.3662
22.4628
22.5596
22.6567
22.7539
22.8513
22.9487
23.0463
23.1439
23.2416
23.3393
23.4369
23.5345
23.6321
23.7295
23.8268
23.924
24.021
24.1178
24.2145
24.3109
24.407
24.5029
24.5985
24.6938
24.7888
24.8834
24.9777
25.0716
25.1651
25.2583
25.351
25.4433
25.5351
25.6265
25.7174
25.8078
25.8978
25.9872
26.0761
26.1645
26.2524
26.3397
26.4265
26.5127
26.5983
26.6833
26.7678
26.8516
26.9348
27.0175
27.0995
27.1809
27.2616
27.3417
27.4212
27.5
27.5781
27.6556
27.7325
27.8086
27.8841
27.9589
28.033
28.1064
28.1792
28.2512
28.3225
28.3932
28.4631
28.5323
28.6008
28.6686
28.7357
28.8021
28.8677
28.9326
28.9968
29.0603
29.1231
29.1851
29.2464
29.3069
29.3667
29.4258
29.4842
29.5418
29.5987
29.6548
29.7102
29.7649
29.8188
29.872
29.9244
29.9761
30.027
30.0772
30.1267
30.1754
30.2234
30.2706
30.3171
30.3629
30.4079
30.4521
30.4957
30.5384
30.5805
30.6217
30.6623
30.7021
30.7411
30.7794
30.817
30.8538
30.8899
30.9252
30.9598
30.9937
31.0268
31.0592
31.0908
31.1217
31.1518
31.1812
31.2099
31.2378
31.265
31.2915
31.3172
31.3421
31.3664
31.3899
31.4126
31.4347
31.4559
31.4765
31.4963
31.5154
31.5337
31.5513
31.5682
31.5843
31.5997
31.6144
31.6283
31.6415
31.654
31.6657
31.6767
31.6869
31.6965
31.7052
31.7133
31.7206
31.7272
31.7331
31.7382
31.7426
31.7463
31.7492
31.7514
31.7529
31.7536
30.4207
30.4062
30.3777
30.3357
30.2807
30.2137
30.1353
30.0466
29.9481
29.8408
29.7251
29.6018
29.4713
29.3343
29.1912
29.0426
28.8887
28.73
28.5669
28.3997
28.2289
28.0547
27.8774
27.6974
27.5148
27.3302
27.1435
26.9553
26.7656
26.5749
26.3832
26.1908
25.998
25.8049
25.6118
25.419
25.2265
25.0346
24.8434
24.6532
24.4641
24.2763
24.09
23.9052
23.7222
23.5411
23.362
23.1851
23.0105
22.8383
22.6686
22.5016
22.3373
22.1759
22.0174
21.862
21.7097
21.5606
21.4147
21.2722
21.1331
20.9975
20.8655
20.737
20.6121
20.4909
20.3734
20.2597
20.1497
20.0436
19.9412
19.8428
19.7481
19.6574
19.5705
19.4875
19.4084
19.3331
19.2617
19.1942
19.1306
19.0708
19.0148
18.9625
18.9141
18.8694
18.8285
18.7912
18.7576
18.7277
18.7013
18.6784
18.6591
18.6433
18.6308
18.6218
18.6161
18.6136
18.6145
18.6185
18.6256
18.6358
18.6491
18.6653
18.6844
18.7064
18.7313
18.7589
18.7891
18.8221
18.8576
18.8956
18.9361
18.979
19.0242
19.0718
19.1216
19.1735
19.2276
19.2837
19.3418
19.4019
19.4639
19.5277
19.5933
19.6606
19.7295
19.8001
19.8722
19.9458
20.0209
20.0973
20.1751
20.2542
20.3345
20.416
20.4987
20.5824
20.6672
20.7529
20.8397
20.9273
21.0158
21.1051
21.1951
21.2859
21.3774
21.4695
21.5622
21.6554
21.7492
21.8435
21.9382
22.0334
22.1289
22.2247
22.3209
22.4173
22.514
22.6109
22.7079
22.8051
22.9024
22.9998
23.0973
23.1948
23.2923
23.3898
23.4872
23.5846
23.6819
23.779
23.876
23.9729
24.0695
24.166
24.2622
24.3582
24.4539
24.5493
24.6444
24.7393
24.8337
24.9278
25.0216
25.1149
25.2079
25.3005
25.3926
25.4843
25.5755
25.6662
25.7565
25.8463
25.9355
26.0243
26.1125
26.2002
26.2874
26.374
26.46
26.5455
26.6304
26.7147
26.7984
26.8814
26.9639
27.0458
27.127
27.2076
27.2876
27.3669
27.4455
27.5236
27.6009
27.6776
27.7536
27.8289
27.9036
27.9776
28.0509
28.1235
28.1954
28.2666
28.3371
28.4069
28.476
28.5443
28.612
28.679
28.7452
28.8107
28.8755
28.9396
29.003
29.0656
29.1275
29.1887
29.2491
29.3088
29.3678
29.426
29.4835
29.5403
29.5963
29.6516
29.7062
29.76
29.8131
29.8654
29.917
29.9679
30.018
30.0673
30.116
30.1639
30.211
30.2574
30.3031
30.348
30.3922
30.4356
30.4783
30.5202
30.5614
30.6019
30.6416
30.6806
30.7188
30.7563
30.7931
30.8291
30.8644
30.8989
30.9327
30.9657
30.998
31.0296
31.0604
31.0905
31.1199
31.1485
31.1764
31.2035
31.2299
31.2555
31.2805
31.3047
31.3281
31.3508
31.3728
31.394
31.4146
31.4343
31.4534
31.4717
31.4892
31.5061
31.5222
31.5375
31.5522
31.5661
31.5792
31.5917
31.6034
31.6144
31.6246
31.6341
31.6429
31.6509
31.6582
31.6648
31.6707
31.6758
31.6802
31.6838
31.6867
31.6889
31.6904
31.6911
30.3991
30.3849
30.3566
30.3149
30.2602
30.1935
30.1155
30.027
29.9288
29.8216
29.706
29.5828
29.4523
29.3153
29.1722
29.0235
28.8695
28.7108
28.5476
28.3805
28.2096
28.0353
27.858
27.6779
27.4954
27.3107
27.1241
26.9359
26.7462
26.5555
26.3638
26.1715
25.9787
25.7857
25.5927
25.3998
25.2074
25.0156
24.8245
24.6343
24.4453
24.2576
24.0713
23.8866
23.7037
23.5226
23.3436
23.1668
22.9923
22.8201
22.6506
22.4836
22.3194
22.1581
21.9997
21.8444
21.6921
21.5431
21.3973
21.2549
21.1159
20.9804
20.8484
20.72
20.5953
20.4742
20.3568
20.2431
20.1333
20.0272
19.925
19.8266
19.732
19.6414
19.5546
19.4717
19.3926
19.3175
19.2462
19.1788
19.1152
19.0555
18.9996
18.9475
18.8992
18.8546
18.8137
18.7765
18.743
18.7131
18.6869
18.6641
18.6449
18.6291
18.6168
18.6078
18.6022
18.5998
18.6007
18.6048
18.612
18.6223
18.6357
18.652
18.6712
18.6933
18.7182
18.7459
18.7762
18.8092
18.8448
18.8829
18.9235
18.9664
19.0118
19.0594
19.1092
19.1612
19.2154
19.2716
19.3298
19.3899
19.4519
19.5158
19.5814
19.6488
19.7178
19.7884
19.8606
19.9342
20.0094
20.0859
20.1637
20.2428
20.3232
20.4048
20.4874
20.5712
20.656
20.7419
20.8286
20.9163
21.0048
21.0941
21.1842
21.275
21.3665
21.4587
21.5514
21.6447
21.7385
21.8328
21.9276
22.0228
22.1183
22.2142
22.3104
22.4068
22.5035
22.6004
22.6975
22.7947
22.892
22.9894
23.0869
23.1844
23.282
23.3795
23.4769
23.5743
23.6716
23.7687
23.8657
23.9626
24.0593
24.1557
24.252
24.3479
24.4437
24.5391
24.6342
24.729
24.8235
24.9176
25.0114
25.1047
25.1977
25.2903
25.3824
25.4741
25.5653
25.656
25.7463
25.8361
25.9253
26.0141
26.1023
26.19
26.2772
26.3638
26.4498
26.5353
26.6201
26.7044
26.7881
26.8712
26.9537
27.0355
27.1167
27.1973
27.2773
27.3566
27.4352
27.5132
27.5906
27.6673
27.7433
27.8186
27.8932
27.9672
28.0405
28.1131
28.185
28.2562
28.3267
28.3964
28.4655
28.5339
28.6016
28.6685
28.7347
28.8003
28.8651
28.9291
28.9925
29.0551
29.117
29.1781
29.2386
29.2983
29.3572
29.4154
29.4729
29.5297
29.5857
29.641
29.6956
29.7494
29.8024
29.8548
29.9063
29.9572
30.0073
30.0566
30.1053
30.1531
30.2003
30.2467
30.2923
30.3372
30.3814
30.4248
30.4675
30.5094
30.5506
30.5911
30.6308
30.6698
30.708
30.7455
30.7822
30.8182
30.8535
30.888
30.9218
30.9548
30.9871
31.0187
31.0495
31.0796
31.1089
31.1375
31.1654
31.1925
31.2189
31.2446
31.2695
31.2937
31.3171
31.3398
31.3618
31.383
31.4035
31.4233
31.4423
31.4606
31.4782
31.495
31.5111
31.5265
31.5411
31.555
31.5682
31.5806
31.5923
31.6033
31.6135
31.623
31.6318
31.6399
31.6472
31.6537
31.6596
31.6647
31.6691
31.6727
31.6757
31.6779
31.6793
31.6801
30.359
30.3443
30.3151
30.2721
30.2159
30.1475
30.0676
29.9774
29.8774
29.7686
29.6516
29.5271
29.3957
29.2578
29.1141
28.9648
28.8104
28.6514
28.4881
28.3208
28.1499
27.9756
27.7984
27.6185
27.4361
27.2515
27.0651
26.8771
26.6877
26.4972
26.3058
26.1137
25.9212
25.7285
25.5358
25.3432
25.1511
24.9595
24.7687
24.5789
24.3902
24.2028
24.0168
23.8324
23.6498
23.4691
23.2904
23.1139
22.9397
22.7679
22.5986
22.432
22.2681
22.1071
21.949
21.7939
21.642
21.4933
21.3478
21.2057
21.067
20.9317
20.8
20.6719
20.5474
20.4266
20.3095
20.1961
20.0865
19.9807
19.8787
19.7805
19.6862
19.5958
19.5092
19.4265
19.3477
19.2728
19.2017
19.1345
19.0712
19.0117
18.956
18.904
18.8559
18.8115
18.7708
18.7338
18.7005
18.6707
18.6446
18.622
18.6029
18.5873
18.5751
18.5663
18.5608
18.5586
18.5596
18.5638
18.5711
18.5815
18.595
18.6114
18.6307
18.6529
18.6779
18.7056
18.736
18.7691
18.8047
18.8429
18.8835
18.9265
18.9719
19.0196
19.0695
19.1215
19.1757
19.2319
19.2901
19.3503
19.4123
19.4762
19.5419
19.6092
19.6782
19.7488
19.821
19.8947
19.9698
20.0463
20.1241
20.2032
20.2835
20.3651
20.4477
20.5315
20.6163
20.702
20.7887
20.8764
20.9648
21.0541
21.1441
21.2349
21.3263
21.4184
21.5111
21.6043
21.6981
21.7923
21.887
21.9821
22.0776
22.1734
22.2695
22.3659
22.4625
22.5593
22.6563
22.7534
22.8507
22.948
23.0454
23.1428
23.2402
23.3376
23.435
23.5323
23.6295
23.7265
23.8234
23.9202
24.0168
24.1131
24.2093
24.3051
24.4008
24.4961
24.5911
24.6858
24.7802
24.8742
24.9679
25.0611
25.154
25.2464
25.3384
25.43
25.5211
25.6118
25.7019
25.7916
25.8808
25.9694
26.0575
26.1451
26.2322
26.3187
26.4046
26.4899
26.5747
26.6589
26.7425
26.8254
26.9078
26.9895
27.0707
27.1512
27.231
27.3102
27.3888
27.4667
27.5439
27.6205
27.6964
27.7716
27.8461
27.92
27.9932
28.0657
28.1375
28.2086
28.279
28.3487
28.4177
28.4859
28.5535
28.6204
28.6865
28.7519
28.8166
28.8806
28.9439
29.0064
29.0682
29.1293
29.1896
29.2492
29.3081
29.3663
29.4237
29.4804
29.5363
29.5915
29.646
29.6997
29.7527
29.8049
29.8564
29.9072
29.9572
30.0065
30.0551
30.1029
30.15
30.1963
30.2419
30.2867
30.3308
30.3742
30.4168
30.4587
30.4998
30.5402
30.5798
30.6188
30.6569
30.6944
30.731
30.767
30.8022
30.8367
30.8704
30.9034
30.9356
30.9672
30.9979
31.028
31.0573
31.0858
31.1137
31.1407
31.1671
31.1927
31.2176
31.2417
31.2651
31.2878
31.3098
31.331
31.3514
31.3712
31.3902
31.4085
31.426
31.4428
31.4589
31.4742
31.4888
31.5027
31.5158
31.5283
31.5399
31.5509
31.5611
31.5706
31.5794
31.5874
31.5947
31.6013
31.6071
31.6122
31.6166
31.6202
31.6232
31.6253
31.6268
31.6275
30.3191
30.3047
30.2759
30.2335
30.178
30.1103
30.0311
29.9415
29.842
29.7337
29.617
29.4927
29.3614
29.2236
29.0798
28.9305
28.7761
28.617
28.4535
28.2861
28.1151
27.9408
27.7635
27.5835
27.4011
27.2166
27.0301
26.8421
26.6527
26.4622
26.2709
26.0789
25.8864
25.6937
25.5011
25.3086
25.1166
24.9251
24.7344
24.5447
24.3561
24.1688
23.9829
23.7987
23.6162
23.4356
23.257
23.0807
22.9066
22.7349
22.5658
22.3993
22.2356
22.0747
21.9167
21.7618
21.6101
21.4615
21.3162
21.1742
21.0357
20.9006
20.7691
20.6411
20.5168
20.3961
20.2791
20.1659
20.0565
19.9509
19.849
19.7511
19.6569
19.5667
19.4803
19.3978
19.3192
19.2444
19.1735
19.1065
19.0433
18.984
18.9284
18.8767
18.8287
18.7845
18.744
18.7072
18.674
18.6445
18.6185
18.5961
18.5772
18.5617
18.5497
18.541
18.5357
18.5337
18.5349
18.5392
18.5467
18.5573
18.5709
18.5875
18.6069
18.6293
18.6544
18.6823
18.7129
18.7461
18.7819
18.8202
18.861
18.9042
18.9497
18.9975
19.0475
19.0997
19.1541
19.2104
19.2688
19.3291
19.3912
19.4552
19.521
19.5885
19.6576
19.7283
19.8006
19.8744
19.9496
20.0262
20.1042
20.1834
20.2638
20.3455
20.4282
20.5121
20.5969
20.6828
20.7696
20.8573
20.9459
21.0352
21.1254
21.2162
21.3077
21.3999
21.4926
21.586
21.6798
21.7741
21.8688
21.964
22.0595
22.1554
22.2515
22.348
22.4446
22.5415
22.6386
22.7357
22.833
22.9304
23.0279
23.1253
23.2228
23.3202
23.4176
23.515
23.6122
23.7093
23.8062
23.903
23.9996
24.096
24.1922
24.2881
24.3837
24.4791
24.5741
24.6689
24.7632
24.8573
24.9509
25.0442
25.1371
25.2295
25.3216
25.4132
25.5043
25.5949
25.6851
25.7748
25.864
25.9526
26.0407
26.1283
26.2154
26.3019
26.3878
26.4732
26.5579
26.6421
26.7257
26.8087
26.891
26.9728
27.0539
27.1344
27.2142
27.2934
27.372
27.4499
27.5271
27.6037
27.6796
27.7548
27.8293
27.9032
27.9764
28.0488
28.1206
28.1917
28.2621
28.3318
28.4008
28.469
28.5366
28.6034
28.6696
28.735
28.7997
28.8636
28.9269
28.9894
29.0512
29.1122
29.1726
29.2322
29.291
29.3492
29.4066
29.4632
29.5192
29.5744
29.6288
29.6825
29.7355
29.7877
29.8392
29.89
29.94
29.9893
30.0378
30.0856
30.1327
30.179
30.2246
30.2694
30.3135
30.3568
30.3994
30.4413
30.4824
30.5228
30.5624
30.6013
30.6395
30.6769
30.7136
30.7495
30.7847
30.8192
30.8529
30.8859
30.9181
30.9496
30.9804
31.0104
31.0397
31.0683
31.0961
31.1232
31.1495
31.1751
31.2
31.2241
31.2475
31.2702
31.2921
31.3133
31.3338
31.3535
31.3725
31.3908
31.4083
31.4251
31.4412
31.4565
31.4711
31.485
31.4981
31.5105
31.5222
31.5332
31.5434
31.5529
31.5616
31.5696
31.5769
31.5835
31.5893
31.5944
31.5988
31.6025
31.6054
31.6076
31.609
31.6098
30.2638
30.2494
30.2204
30.1778
30.122
30.0539
29.9742
29.884
29.784
29.675
29.5577
29.4329
29.301
29.1627
29.0184
28.8687
28.714
28.5546
28.3909
28.2234
28.0523
27.8779
27.7006
27.5206
27.3382
27.1537
26.9674
26.7795
26.5903
26.4
26.2088
26.017
25.8247
25.6323
25.4399
25.2476
25.0558
24.8646
24.6742
24.4848
24.2964
24.1094
23.9238
23.7398
23.5576
23.3773
23.1991
23.023
22.8492
22.6778
22.509
22.3428
22.1794
22.0188
21.8611
21.7065
21.555
21.4068
21.2618
21.1201
20.9819
20.8471
20.7158
20.5882
20.4641
20.3437
20.2271
20.1142
20.005
19.8996
19.7981
19.7004
19.6066
19.5166
19.4305
19.3483
19.2699
19.1954
19.1248
19.058
18.9951
18.936
18.8807
18.8293
18.7815
18.7376
18.6973
18.6607
18.6278
18.5985
18.5728
18.5506
18.5319
18.5167
18.5048
18.4964
18.4913
18.4894
18.4908
18.4954
18.5031
18.5139
18.5277
18.5444
18.5641
18.5866
18.6119
18.64
18.6707
18.7041
18.7401
18.7785
18.8195
18.8628
18.9084
18.9564
19.0065
19.0589
19.1133
19.1698
19.2283
19.2887
19.351
19.4151
19.4809
19.5485
19.6177
19.6886
19.7609
19.8348
19.9101
19.9868
20.0648
20.1441
20.2246
20.3063
20.3891
20.473
20.5579
20.6439
20.7307
20.8185
20.9071
20.9964
21.0866
21.1775
21.269
21.3612
21.454
21.5473
21.6412
21.7355
21.8302
21.9254
22.0209
22.1168
22.213
22.3094
22.406
22.5029
22.5999
22.6971
22.7944
22.8918
22.9892
23.0866
23.1841
23.2815
23.3789
23.4761
23.5733
23.6704
23.7673
23.8641
23.9606
24.057
24.1531
24.249
24.3446
24.4399
24.5349
24.6296
24.7239
24.8179
24.9115
25.0047
25.0976
25.19
25.2819
25.3735
25.4645
25.5551
25.6452
25.7349
25.824
25.9126
26.0006
26.0882
26.1752
26.2616
26.3475
26.4327
26.5175
26.6016
26.6851
26.768
26.8503
26.932
27.013
27.0934
27.1732
27.2523
27.3308
27.4087
27.4858
27.5623
27.6382
27.7133
27.7878
27.8616
27.9347
28.0071
28.0788
28.1498
28.2202
28.2898
28.3587
28.4269
28.4944
28.5612
28.6272
28.6926
28.7572
28.8211
28.8843
28.9467
29.0085
29.0695
29.1297
29.1893
29.2481
29.3062
29.3635
29.4201
29.476
29.5311
29.5855
29.6392
29.6921
29.7443
29.7957
29.8464
29.8964
29.9456
29.9941
30.0418
30.0888
30.1351
30.1806
30.2254
30.2694
30.3127
30.3553
30.3971
30.4382
30.4785
30.5181
30.5569
30.5951
30.6324
30.6691
30.705
30.7401
30.7745
30.8082
30.8412
30.8734
30.9048
30.9356
30.9656
30.9948
31.0233
31.0511
31.0782
31.1045
31.13
31.1549
31.179
31.2024
31.225
31.2469
31.2681
31.2885
31.3082
31.3272
31.3455
31.363
31.3797
31.3958
31.4111
31.4257
31.4395
31.4527
31.4651
31.4767
31.4877
31.4979
31.5073
31.5161
31.5241
31.5314
31.538
31.5438
31.5489
31.5533
31.5569
31.5598
31.562
31.5635
31.5642
30.2082
30.1941
30.1657
30.1238
30.0688
30.0016
29.9229
29.8336
29.7343
29.6259
29.5091
29.3846
29.253
29.1149
28.9707
28.821
28.6662
28.5067
28.343
28.1753
28.0041
27.8297
27.6522
27.4722
27.2898
27.1053
26.9189
26.731
26.5418
26.3515
26.1604
25.9686
25.7764
25.5841
25.3917
25.1996
25.0079
24.8168
24.6265
24.4372
24.249
24.0621
23.8767
23.6929
23.5108
23.3307
23.1526
22.9767
22.8031
22.6319
22.4632
22.2972
22.134
21.9736
21.8162
21.6618
21.5105
21.3624
21.2176
21.0762
20.9382
20.8036
20.6726
20.5452
20.4213
20.3012
20.1848
20.0721
19.9632
19.8581
19.7568
19.6593
19.5657
19.476
19.3901
19.3081
19.23
19.1558
19.0854
19.0189
18.9563
18.8974
18.8424
18.7912
18.7437
18.7
18.66
18.6237
18.591
18.562
18.5365
18.5146
18.4961
18.4812
18.4696
18.4614
18.4566
18.455
18.4566
18.4614
18.4694
18.4804
18.4944
18.5114
18.5313
18.5541
18.5797
18.608
18.639
18.6726
18.7088
18.7475
18.7886
18.8322
18.878
18.9262
18.9766
19.0291
19.0838
19.1405
19.1992
19.2598
19.3223
19.3866
19.4526
19.5204
19.5898
19.6609
19.7334
19.8074
19.8829
19.9598
20.038
20.1174
20.1981
20.28
20.3629
20.447
20.5321
20.6182
20.7052
20.7931
20.8818
20.9713
21.0616
21.1526
21.2443
21.3366
21.4295
21.523
21.6169
21.7114
21.8062
21.9015
21.9972
22.0931
22.1894
22.2859
22.3827
22.4796
22.5768
22.674
22.7714
22.8688
22.9663
23.0639
23.1614
23.2589
23.3563
23.4537
23.5509
23.6481
23.745
23.8419
23.9385
24.0349
24.1311
24.227
24.3226
24.418
24.513
24.6078
24.7022
24.7962
24.8898
24.9831
25.0759
25.1684
25.2604
25.3519
25.443
25.5337
25.6238
25.7135
25.8026
25.8912
25.9793
26.0669
26.1539
26.2403
26.3262
26.4115
26.4962
26.5803
26.6639
26.7468
26.8291
26.9108
26.9918
27.0723
27.152
27.2312
27.3097
27.3875
27.4647
27.5412
27.617
27.6922
27.7666
27.8404
27.9135
27.9859
28.0576
28.1287
28.199
28.2686
28.3375
28.4057
28.4732
28.54
28.606
28.6714
28.736
28.7999
28.863
28.9255
28.9872
29.0482
29.1085
29.168
29.2268
29.2848
29.3422
29.3988
29.4546
29.5097
29.5641
29.6178
29.6707
29.7228
29.7743
29.825
29.8749
29.9241
29.9726
30.0203
30.0673
30.1136
30.1591
30.2038
30.2479
30.2911
30.3337
30.3755
30.4166
30.4569
30.4965
30.5353
30.5734
30.6108
30.6474
30.6833
30.7184
30.7528
30.7865
30.8194
30.8516
30.8831
30.9138
30.9438
30.973
31.0015
31.0293
31.0563
31.0826
31.1082
31.133
31.1571
31.1805
31.2031
31.225
31.2462
31.2666
31.2863
31.3053
31.3235
31.341
31.3578
31.3738
31.3891
31.4037
31.4176
31.4307
31.4431
31.4547
31.4657
31.4759
31.4853
31.4941
31.5021
31.5094
31.5159
31.5218
31.5269
31.5312
31.5349
31.5378
31.54
31.5414
31.5422
30.14
30.126
30.0978
30.0562
30.0015
29.9346
29.8562
29.767
29.6678
29.5595
29.4427
29.318
29.1863
29.0479
28.9035
28.7536
28.5986
28.4389
28.275
28.1072
27.9358
27.7613
27.5838
27.4037
27.2213
27.0368
26.8505
26.6627
26.4736
26.2834
26.0924
25.9008
25.7087
25.5166
25.3244
25.1325
24.941
24.7502
24.5601
24.371
24.1831
23.9964
23.8112
23.6277
23.4459
23.2661
23.0882
22.9126
22.7393
22.5684
22.4
22.2343
22.0714
21.9113
21.7542
21.6001
21.4491
21.3014
21.1569
21.0158
20.8781
20.7438
20.6131
20.486
20.3625
20.2427
20.1266
20.0142
19.9056
19.8008
19.6999
19.6027
19.5095
19.4201
19.3345
19.2529
19.1751
19.1012
19.0311
18.965
18.9026
18.8441
18.7894
18.7385
18.6913
18.6479
18.6083
18.5722
18.5399
18.5111
18.486
18.4644
18.4462
18.4316
18.4203
18.4124
18.4079
18.4066
18.4085
18.4136
18.4218
18.4331
18.4474
18.4647
18.4849
18.5079
18.5337
18.5623
18.5936
18.6274
18.6639
18.7028
18.7442
18.788
18.8341
18.8825
18.9331
18.9859
19.0407
19.0976
19.1565
19.2174
19.2801
19.3446
19.4108
19.4788
19.5484
19.6196
19.6923
19.7665
19.8422
19.9192
19.9975
20.0772
20.158
20.24
20.3231
20.4073
20.4925
20.5787
20.6659
20.7539
20.8428
20.9324
21.0228
21.1139
21.2057
21.2981
21.3911
21.4847
21.5787
21.6733
21.7682
21.8636
21.9593
22.0553
22.1517
22.2483
22.3451
22.4421
22.5393
22.6366
22.734
22.8315
22.9291
23.0266
23.1242
23.2217
23.3192
23.4166
23.5139
23.611
23.708
23.8049
23.9015
23.9979
24.0941
24.19
24.2857
24.3811
24.4761
24.5709
24.6652
24.7593
24.8529
24.9462
25.039
25.1315
25.2235
25.315
25.4061
25.4967
25.5868
25.6765
25.7656
25.8542
25.9422
26.0298
26.1168
26.2032
26.289
26.3743
26.459
26.5431
26.6266
26.7095
26.7918
26.8734
26.9544
27.0348
27.1146
27.1937
27.2721
27.3499
27.4271
27.5035
27.5793
27.6544
27.7289
27.8026
27.8757
27.9481
28.0197
28.0907
28.161
28.2306
28.2994
28.3676
28.435
28.5018
28.5678
28.6331
28.6976
28.7615
28.8246
28.887
28.9487
29.0097
29.0699
29.1294
29.1881
29.2461
29.3034
29.36
29.4158
29.4709
29.5252
29.5788
29.6317
29.6838
29.7352
29.7859
29.8358
29.8849
29.9334
29.9811
30.028
30.0742
30.1197
30.1644
30.2084
30.2516
30.2942
30.3359
30.3769
30.4172
30.4568
30.4956
30.5337
30.571
30.6076
30.6434
30.6785
30.7129
30.7466
30.7795
30.8116
30.8431
30.8737
30.9037
30.9329
30.9614
30.9891
31.0162
31.0424
31.068
31.0928
31.1169
31.1402
31.1628
31.1847
31.2058
31.2262
31.2459
31.2649
31.2831
31.3006
31.3173
31.3334
31.3487
31.3632
31.3771
31.3902
31.4025
31.4142
31.4251
31.4353
31.4448
31.4535
31.4615
31.4688
31.4753
31.4812
31.4862
31.4906
31.4943
31.4972
31.4993
31.5008
31.5015
30.0705
30.0567
30.0291
29.9883
29.9345
29.8687
29.7912
29.703
29.6048
29.4972
29.381
29.257
29.1256
28.9875
28.8433
28.6934
28.5385
28.3788
28.2148
28.0469
27.8755
27.7009
27.5233
27.3432
27.1607
26.9762
26.7899
26.602
26.4129
26.2227
26.0318
25.8402
25.6483
25.4562
25.2641
25.0723
24.881
24.6902
24.5003
24.3114
24.1236
23.9371
23.7521
23.5687
23.3872
23.2075
23.0299
22.8545
22.6814
22.5107
22.3426
22.1771
22.0144
21.8545
21.6977
21.5438
21.3931
21.2456
21.1014
20.9606
20.8231
20.6892
20.5587
20.4319
20.3087
20.1892
20.0734
19.9613
19.853
19.7485
19.6479
19.551
19.4581
19.369
19.2838
19.2024
19.125
19.0514
18.9817
18.9158
18.8538
18.7956
18.7413
18.6907
18.6439
18.6008
18.5615
18.5258
18.4938
18.4654
18.4406
18.4193
18.4015
18.3872
18.3762
18.3687
18.3645
18.3635
18.3658
18.3712
18.3798
18.3914
18.406
18.4237
18.4442
18.4675
18.4937
18.5226
18.5541
18.5883
18.6251
18.6643
18.706
18.7501
18.7965
18.8452
18.8961
18.9492
19.0044
19.0616
19.1207
19.1818
19.2448
19.3096
19.3761
19.4444
19.5142
19.5857
19.6587
19.7331
19.809
19.8863
19.9649
20.0447
20.1258
20.208
20.2914
20.3758
20.4613
20.5477
20.635
20.7232
20.8123
20.9022
20.9928
21.0841
21.176
21.2686
21.3618
21.4555
21.5498
21.6445
21.7396
21.8351
21.931
22.0272
22.1236
22.2204
22.3173
22.4145
22.5118
22.6093
22.7068
22.8044
22.9021
22.9998
23.0975
23.1951
23.2927
23.3902
23.4876
23.5848
23.6819
23.7789
23.8756
23.9721
24.0684
24.1644
24.2601
24.3556
24.4507
24.5455
24.64
24.7341
24.8278
24.9211
25.014
25.1065
25.1986
25.2902
25.3813
25.472
25.5621
25.6518
25.741
25.8296
25.9177
26.0053
26.0923
26.1788
26.2647
26.35
26.4347
26.5188
26.6023
26.6853
26.7676
26.8492
26.9303
27.0107
27.0904
27.1696
27.248
27.3258
27.403
27.4795
27.5553
27.6304
27.7048
27.7786
27.8517
27.924
27.9957
28.0667
28.137
28.2066
28.2754
28.3436
28.411
28.4778
28.5438
28.6091
28.6737
28.7375
28.8006
28.863
28.9247
28.9856
29.0459
29.1053
29.1641
29.2221
29.2794
29.3359
29.3917
29.4468
29.5011
29.5547
29.6076
29.6597
29.7111
29.7617
29.8116
29.8608
29.9092
29.9569
30.0038
30.05
30.0955
30.1402
30.1842
30.2274
30.2699
30.3117
30.3527
30.393
30.4325
30.4713
30.5094
30.5467
30.5833
30.6191
30.6542
30.6886
30.7222
30.7551
30.7872
30.8187
30.8493
30.8793
30.9085
30.937
30.9647
30.9917
31.018
31.0435
31.0683
31.0924
31.1157
31.1383
31.1602
31.1813
31.2017
31.2214
31.2403
31.2585
31.276
31.2928
31.3088
31.3241
31.3386
31.3525
31.3656
31.3779
31.3896
31.4005
31.4107
31.4201
31.4289
31.4369
31.4441
31.4507
31.4565
31.4616
31.466
31.4696
31.4725
31.4747
31.4762
31.4769
29.9903
29.9768
29.9495
29.9092
29.856
29.7908
29.714
29.6265
29.5287
29.4216
29.3058
29.1819
29.0507
28.9127
28.7685
28.6186
28.4636
28.3038
28.1397
27.9718
27.8002
27.6255
27.4479
27.2677
27.0852
26.9006
26.7143
26.5265
26.3375
26.1474
25.9565
25.7651
25.5733
25.3814
25.1895
24.9979
24.8067
24.6162
24.4264
24.2377
24.0502
23.8639
23.6792
23.4961
23.3148
23.1354
22.9581
22.7829
22.6101
22.4397
22.2719
22.1067
21.9444
21.7848
21.6283
21.4748
21.3244
21.1772
21.0333
20.8928
20.7557
20.6221
20.492
20.3656
20.2427
20.1236
20.0081
19.8964
19.7885
19.6844
19.5841
19.4876
19.3951
19.3063
19.2215
19.1406
19.0635
18.9903
18.9209
18.8555
18.7939
18.7361
18.6821
18.6319
18.5855
18.5428
18.5038
18.4686
18.4369
18.4089
18.3845
18.3636
18.3462
18.3322
18.3217
18.3145
18.3107
18.3101
18.3127
18.3185
18.3275
18.3395
18.3545
18.3724
18.3933
18.417
18.4435
18.4727
18.5047
18.5392
18.5763
18.6159
18.6579
18.7023
18.7491
18.7981
18.8493
18.9027
18.9582
19.0157
19.0751
19.1365
19.1998
19.2649
19.3317
19.4002
19.4703
19.5421
19.6153
19.6901
19.7662
19.8437
19.9225
20.0026
20.0839
20.1664
20.25
20.3346
20.4203
20.5069
20.5945
20.6829
20.7722
20.8622
20.953
21.0445
21.1366
21.2294
21.3228
21.4167
21.511
21.6059
21.7012
21.7968
21.8929
21.9892
22.0858
22.1827
22.2798
22.3771
22.4745
22.5721
22.6697
22.7675
22.8652
22.963
23.0608
23.1585
23.2562
23.3538
23.4513
23.5486
23.6458
23.7428
23.8396
23.9362
24.0325
24.1286
24.2244
24.3199
24.4151
24.5099
24.6044
24.6986
24.7923
24.8857
24.9786
25.0712
25.1632
25.2549
25.346
25.4367
25.5269
25.6166
25.7058
25.7945
25.8826
25.9702
26.0572
26.1437
26.2296
26.3149
26.3996
26.4837
26.5673
26.6502
26.7325
26.8142
26.8952
26.9756
27.0554
27.1345
27.2129
27.2907
27.3679
27.4443
27.5201
27.5952
27.6697
27.7434
27.8165
27.8888
27.9605
28.0315
28.1017
28.1713
28.2401
28.3083
28.3757
28.4424
28.5084
28.5737
28.6382
28.7021
28.7652
28.8275
28.8892
28.9501
29.0103
29.0697
29.1285
29.1864
29.2437
29.3002
29.356
29.411
29.4653
29.5189
29.5718
29.6238
29.6752
29.7258
29.7757
29.8248
29.8732
29.9209
29.9678
30.014
30.0594
30.1041
30.148
30.1912
30.2337
30.2754
30.3164
30.3567
30.3962
30.435
30.473
30.5103
30.5468
30.5827
30.6177
30.6521
30.6857
30.7186
30.7507
30.7821
30.8127
30.8427
30.8719
30.9003
30.928
30.955
30.9813
31.0068
31.0316
31.0556
31.0789
31.1015
31.1234
31.1445
31.1649
31.1845
31.2035
31.2217
31.2391
31.2559
31.2719
31.2871
31.3017
31.3155
31.3286
31.341
31.3526
31.3635
31.3737
31.3831
31.3919
31.3999
31.4071
31.4137
31.4195
31.4246
31.4289
31.4326
31.4355
31.4377
31.4391
31.4398
29.9077
29.8944
29.8677
29.8282
29.776
29.7118
29.6361
29.5496
29.4528
29.3466
29.2316
29.1084
28.9777
28.8402
28.6963
28.5466
28.3917
28.232
28.0679
27.8999
27.7284
27.5536
27.3759
27.1956
27.0131
26.8285
26.6422
26.4544
26.2654
26.0753
25.8845
25.6931
25.5014
25.3096
25.1178
24.9263
24.7353
24.5449
24.3553
24.1668
23.9794
23.7934
23.6088
23.4259
23.2448
23.0656
22.8885
22.7136
22.5411
22.371
22.2034
22.0385
21.8764
21.7171
21.5609
21.4077
21.2576
21.1107
20.9672
20.827
20.6902
20.5569
20.4272
20.301
20.1785
20.0597
19.9446
19.8333
19.7257
19.622
19.5221
19.426
19.3338
19.2455
19.161
19.0804
19.0038
18.931
18.862
18.797
18.7357
18.6784
18.6248
18.575
18.529
18.4868
18.4482
18.4133
18.3821
18.3545
18.3305
18.31
18.2931
18.2795
18.2694
18.2627
18.2593
18.2591
18.2622
18.2684
18.2777
18.2901
18.3056
18.324
18.3452
18.3694
18.3963
18.4259
18.4582
18.4932
18.5307
18.5706
18.6131
18.6579
18.705
18.7544
18.806
18.8598
18.9156
18.9735
19.0333
19.0951
19.1587
19.2241
19.2913
19.3601
19.4306
19.5027
19.5763
19.6513
19.7278
19.8056
19.8848
19.9652
20.0468
20.1296
20.2134
20.2984
20.3843
20.4712
20.5591
20.6477
20.7373
20.8276
20.9186
21.0104
21.1028
21.1958
21.2894
21.3835
21.4781
21.5732
21.6687
21.7646
21.8608
21.9573
22.0541
22.1512
22.2485
22.346
22.4436
22.5413
22.6392
22.7371
22.835
22.933
23.0309
23.1288
23.2266
23.3243
23.4219
23.5194
23.6167
23.7139
23.8108
23.9075
24.004
24.1002
24.1961
24.2917
24.387
24.4819
24.5765
24.6708
24.7646
24.8581
24.9511
25.0437
25.1359
25.2276
25.3188
25.4096
25.4999
25.5896
25.6789
25.7676
25.8558
25.9434
26.0305
26.1171
26.203
26.2884
26.3732
26.4573
26.5409
26.6239
26.7062
26.7879
26.869
26.9494
27.0292
27.1084
27.1869
27.2647
27.3419
27.4183
27.4942
27.5693
27.6438
27.7175
27.7906
27.863
27.9347
28.0056
28.0759
28.1455
28.2143
28.2825
28.3499
28.4166
28.4826
28.5479
28.6125
28.6763
28.7394
28.8018
28.8634
28.9244
28.9846
29.044
29.1027
29.1607
29.218
29.2745
29.3303
29.3853
29.4396
29.4932
29.546
29.5981
29.6495
29.7001
29.7499
29.7991
29.8474
29.8951
29.942
29.9882
30.0336
30.0783
30.1222
30.1654
30.2079
30.2496
30.2906
30.3308
30.3703
30.4091
30.4471
30.4844
30.521
30.5568
30.5918
30.6262
30.6598
30.6926
30.7248
30.7561
30.7868
30.8167
30.8459
30.8743
30.902
30.929
30.9553
30.9808
31.0055
31.0296
31.0529
31.0755
31.0973
31.1184
31.1388
31.1585
31.1774
31.1956
31.213
31.2298
31.2458
31.261
31.2756
31.2894
31.3025
31.3148
31.3265
31.3374
31.3476
31.357
31.3657
31.3737
31.381
31.3875
31.3933
31.3984
31.4028
31.4064
31.4093
31.4115
31.413
31.4137
29.8159
29.8028
29.7765
29.7376
29.6861
29.6228
29.5479
29.4622
29.3663
29.2608
29.1464
29.0238
28.8935
28.7562
28.6126
28.4631
28.3082
28.1486
27.9845
27.8165
27.6449
27.47
27.2923
27.112
26.9295
26.7449
26.5586
26.3708
26.1818
25.9918
25.8011
25.6098
25.4182
25.2265
25.0349
24.8436
24.6527
24.4625
24.2732
24.0848
23.8977
23.7119
23.5276
23.345
23.1641
22.9853
22.8084
22.6338
22.4616
22.2918
22.1245
21.96
21.7982
21.6393
21.4833
21.3305
21.1807
21.0342
20.8911
20.7512
20.6148
20.4819
20.3526
20.2268
20.1047
19.9863
19.8716
19.7607
19.6536
19.5502
19.4508
19.3551
19.2633
19.1755
19.0914
19.0113
18.9351
18.8627
18.7942
18.7296
18.6689
18.6119
18.5588
18.5095
18.464
18.4222
18.3841
18.3497
18.3189
18.2918
18.2683
18.2482
18.2317
18.2187
18.209
18.2027
18.1998
18.2001
18.2036
18.2103
18.2201
18.233
18.2488
18.2677
18.2894
18.314
18.3413
18.3714
18.4042
18.4395
18.4774
18.5179
18.5607
18.6059
18.6535
18.7033
18.7553
18.8095
18.8657
18.924
18.9842
19.0464
19.1104
19.1761
19.2437
19.3129
19.3837
19.4562
19.5301
19.6055
19.6823
19.7605
19.8399
19.9207
20.0026
20.0857
20.1699
20.2551
20.3413
20.4285
20.5166
20.6056
20.6954
20.786
20.8773
20.9693
21.062
21.1552
21.249
21.3434
21.4383
21.5335
21.6293
21.7254
21.8218
21.9185
22.0156
22.1128
22.2103
22.308
22.4058
22.5037
22.6017
22.6998
22.7979