/*--------------------------------*- C++ -*----------------------------------*\
| =========                 |                                                 |
| \\      /  F ield         | OpenFOAM: The Open Source CFD Toolbox           |
|  \\    /   O peration     | Version:  2212                                  |
|   \\  /    A nd           | Website:  www.openfoam.com                      |
|    \\/     M anipulation  |                                                 |
\*---------------------------------------------------------------------------*/
FoamFile
{
    version     2.0;
    format      ascii;
    arch        "LSB;label=32;scalar=64";
    class       volScalarField;
    location    "420";
    object      p_rgh_0;
}
// * * * * * * * * * * * * * * * * * * * * * * * * * * * * * * * * * * * * * //

dimensions      [1 -1 -2 0 0 0 0];

internalField   nonuniform List<scalar> 
204800
(
30.4083
30.3952
30.369
30.3304
30.2794
30.2166
30.1425
30.0577
29.9628
29.8584
29.7453
29.624
29.4951
29.3593
29.2171
29.069
28.9155
28.757
28.594
28.4269
28.2559
28.0816
27.9042
27.7239
27.5412
27.3563
27.1695
26.981
26.7911
26.6
26.4081
26.2155
26.0224
25.8291
25.6358
25.4427
25.25
25.0578
24.8664
24.676
24.4867
24.2987
24.1121
23.9272
23.744
23.5627
23.3834
23.2063
23.0316
22.8592
22.6894
22.5223
22.3579
22.1963
22.0377
21.8822
21.7298
21.5806
21.4347
21.2921
21.153
21.0173
20.8852
20.7567
20.6318
20.5106
20.3931
20.2794
20.1694
20.0633
19.961
19.8626
19.768
19.6773
19.5905
19.5076
19.4286
19.3535
19.2822
19.2148
19.1513
19.0916
19.0358
18.9837
18.9355
18.891
18.8502
18.8132
18.7798
18.75
18.7239
18.7012
18.6822
18.6666
18.6544
18.6456
18.6401
18.638
18.6391
18.6434
18.6508
18.6613
18.6749
18.6914
18.7109
18.7332
18.7584
18.7863
18.817
18.8502
18.8861
18.9245
18.9653
19.0086
19.0542
19.1021
19.1523
19.2047
19.2591
19.3156
19.3742
19.4347
19.497
19.5612
19.6272
19.6949
19.7643
19.8353
19.9078
19.9818
20.0573
20.1342
20.2124
20.2919
20.3727
20.4546
20.5377
20.6219
20.7071
20.7933
20.8805
20.9685
21.0574
21.1472
21.2376
21.3289
21.4208
21.5133
21.6065
21.7002
21.7944
21.8891
21.9843
22.0798
22.1758
22.272
22.3686
22.4655
22.5626
22.6599
22.7574
22.855
22.9527
23.0505
23.1484
23.2463
23.3442
23.4421
23.54
23.6377
23.7354
23.8329
23.9303
24.0276
24.1246
24.2215
24.3181
24.4144
24.5105
24.6063
24.7018
24.797
24.8918
24.9863
25.0804
25.1741
25.2674
25.3603
25.4527
25.5447
25.6363
25.7274
25.818
25.9081
25.9977
26.0867
26.1753
26.2633
26.3507
26.4376
26.5239
26.6097
26.6948
26.7794
26.8634
26.9467
27.0295
27.1116
27.1931
27.2739
27.3541
27.4337
27.5126
27.5908
27.6684
27.7453
27.8216
27.8971
27.972
28.0462
28.1197
28.1924
28.2645
28.3359
28.4066
28.4766
28.5459
28.6145
28.6823
28.7494
28.8158
28.8815
28.9465
29.0107
29.0742
29.137
29.199
29.2603
29.3209
29.3807
29.4398
29.4982
29.5558
29.6127
29.6689
29.7243
29.7789
29.8328
29.886
29.9385
29.9901
30.0411
30.0913
30.1408
30.1895
30.2374
30.2847
30.3311
30.3769
30.4218
30.4661
30.5096
30.5523
30.5943
30.6356
30.6761
30.7159
30.7549
30.7932
30.8307
30.8675
30.9036
30.9389
30.9735
31.0073
31.0404
31.0727
31.1043
31.1352
31.1653
31.1947
31.2233
31.2512
31.2784
31.3048
31.3305
31.3554
31.3796
31.4031
31.4258
31.4478
31.4691
31.4896
31.5094
31.5284
31.5467
31.5643
31.5812
31.5973
31.6127
31.6273
31.6412
31.6544
31.6668
31.6785
31.6895
31.6998
31.7093
31.718
31.7261
31.7334
31.74
31.7458
31.751
31.7554
31.759
31.7619
31.7641
31.7656
31.7663
30.3876
30.3731
30.3446
30.3026
30.2476
30.1806
30.1023
30.0136
29.9151
29.8078
29.6921
29.5688
29.4384
29.3015
29.1584
29.0098
28.8559
28.6973
28.5342
28.3672
28.1964
28.0222
27.845
27.665
27.4826
27.298
27.1115
26.9233
26.7338
26.5431
26.3515
26.1592
25.9665
25.7736
25.5806
25.3879
25.1955
25.0038
24.8128
24.6227
24.4338
24.2461
24.0599
23.8753
23.6925
23.5116
23.3327
23.1559
22.9815
22.8095
22.64
22.4732
22.3092
22.1479
21.9897
21.8345
21.6824
21.5335
21.3879
21.2456
21.1067
20.9714
20.8395
20.7113
20.5867
20.4657
20.3485
20.235
20.1253
20.0194
19.9174
19.8192
19.7248
19.6343
19.5477
19.465
19.3862
19.3112
19.2401
19.1729
19.1095
19.05
18.9943
18.9424
18.8943
18.8499
18.8093
18.7723
18.739
18.7094
18.6833
18.6608
18.6418
18.6262
18.6141
18.6054
18.6
18.5979
18.599
18.6033
18.6108
18.6213
18.6349
18.6514
18.6709
18.6933
18.7184
18.7463
18.7769
18.8102
18.846
18.8843
18.9252
18.9684
19.014
19.0618
19.1119
19.1642
19.2186
19.2751
19.3335
19.3939
19.4562
19.5203
19.5862
19.6538
19.7231
19.794
19.8664
19.9403
20.0157
20.0925
20.1706
20.25
20.3306
20.4124
20.4954
20.5794
20.6645
20.7506
20.8376
20.9255
21.0143
21.1039
21.1942
21.2853
21.377
21.4694
21.5624
21.656
21.75
21.8446
21.9396
22.035
22.1308
22.2269
22.3233
22.42
22.5169
22.6141
22.7114
22.8088
22.9064
23.0041
23.1018
23.1995
23.2973
23.395
23.4926
23.5902
23.6877
23.7851
23.8823
23.9794
24.0763
24.1729
24.2694
24.3656
24.4615
24.5571
24.6524
24.7474
24.8421
24.9364
25.0303
25.1239
25.217
25.3097
25.402
25.4939
25.5853
25.6762
25.7666
25.8565
25.946
26.0349
26.1233
26.2111
26.2984
26.3851
26.4713
26.5569
26.6419
26.7263
26.8101
26.8933
26.9759
27.0579
27.1392
27.2199
27.3
27.3794
27.4581
27.5362
27.6137
27.6904
27.7665
27.8419
27.9167
27.9907
28.0641
28.1367
28.2087
28.28
28.3505
28.4204
28.4895
28.5579
28.6257
28.6927
28.7589
28.8245
28.8893
28.9534
29.0168
29.0795
29.1414
29.2026
29.2631
29.3228
29.3818
29.44
29.4975
29.5543
29.6104
29.6657
29.7202
29.774
29.8271
29.8794
29.931
29.9819
30.032
30.0814
30.13
30.1779
30.225
30.2714
30.317
30.3619
30.4061
30.4495
30.4922
30.5341
30.5753
30.6157
30.6554
30.6944
30.7326
30.77
30.8068
30.8427
30.878
30.9125
30.9463
30.9793
31.0116
31.0431
31.0739
31.104
31.1333
31.1619
31.1897
31.2168
31.2432
31.2688
31.2937
31.3179
31.3413
31.364
31.3859
31.4071
31.4276
31.4474
31.4664
31.4847
31.5022
31.519
31.5351
31.5505
31.5651
31.579
31.5921
31.6045
31.6162
31.6272
31.6374
31.6469
31.6556
31.6637
31.671
31.6776
31.6834
31.6885
31.6929
31.6965
31.6995
31.7016
31.7031
31.7038
30.366
30.3518
30.3235
30.2818
30.2271
30.1605
30.0825
29.994
29.8958
29.7886
29.6731
29.5498
29.4195
29.2825
29.1394
28.9907
28.8368
28.6781
28.515
28.3479
28.177
28.0029
27.8256
27.6456
27.4632
27.2786
27.0921
26.9039
26.7144
26.5237
26.3321
26.1399
25.9473
25.7544
25.5615
25.3688
25.1765
24.9848
24.7938
24.6038
24.415
24.2274
24.0412
23.8567
23.674
23.4931
23.3143
23.1376
22.9633
22.7914
22.622
22.4553
22.2913
22.1301
21.972
21.8168
21.6648
21.516
21.3705
21.2283
21.0896
20.9543
20.8225
20.6944
20.5699
20.449
20.3319
20.2185
20.1089
20.0031
19.9011
19.803
19.7087
19.6183
19.5318
19.4492
19.3704
19.2956
19.2246
19.1575
19.0942
19.0348
18.9792
18.9274
18.8793
18.835
18.7945
18.7576
18.7244
18.6948
18.6689
18.6464
18.6275
18.6121
18.6
18.5914
18.5861
18.5841
18.5853
18.5897
18.5972
18.6078
18.6215
18.6381
18.6577
18.6801
18.7053
18.7333
18.764
18.7973
18.8332
18.8717
18.9125
18.9558
19.0015
19.0494
19.0996
19.152
19.2064
19.2629
19.3215
19.3819
19.4443
19.5084
19.5744
19.6421
19.7114
19.7823
19.8548
19.9288
20.0042
20.081
20.1592
20.2386
20.3193
20.4012
20.4842
20.5683
20.6534
20.7395
20.8265
20.9145
21.0033
21.0929
21.1833
21.2744
21.3662
21.4586
21.5517
21.6452
21.7393
21.8339
21.929
22.0244
22.1202
22.2163
22.3128
22.4095
22.5064
22.6036
22.7009
22.7984
22.896
22.9937
23.0914
23.1891
23.2869
23.3846
23.4823
23.5799
23.6774
23.7748
23.8721
23.9691
24.066
24.1627
24.2591
24.3553
24.4513
24.5469
24.6422
24.7372
24.8319
24.9262
25.0201
25.1137
25.2068
25.2995
25.3918
25.4837
25.5751
25.666
25.7564
25.8463
25.9358
26.0247
26.113
26.2009
26.2882
26.3749
26.4611
26.5466
26.6316
26.7161
26.7999
26.8831
26.9656
27.0476
27.1289
27.2096
27.2897
27.3691
27.4478
27.5259
27.6033
27.6801
27.7562
27.8316
27.9063
27.9803
28.0537
28.1263
28.1983
28.2696
28.3401
28.4099
28.4791
28.5475
28.6152
28.6822
28.7485
28.814
28.8788
28.9429
29.0063
29.069
29.1309
29.1921
29.2525
29.3122
29.3712
29.4294
29.487
29.5437
29.5997
29.655
29.7096
29.7634
29.8165
29.8688
29.9204
29.9712
30.0213
30.0707
30.1193
30.1671
30.2143
30.2606
30.3063
30.3512
30.3953
30.4387
30.4814
30.5233
30.5645
30.6049
30.6446
30.6835
30.7217
30.7592
30.7959
30.8319
30.8671
30.9016
30.9354
30.9684
31.0006
31.0322
31.063
31.093
31.1223
31.1509
31.1787
31.2058
31.2322
31.2578
31.2827
31.3069
31.3303
31.353
31.3749
31.3961
31.4166
31.4364
31.4554
31.4736
31.4912
31.508
31.5241
31.5394
31.554
31.5679
31.581
31.5935
31.6051
31.6161
31.6263
31.6358
31.6446
31.6526
31.6599
31.6665
31.6723
31.6774
31.6818
31.6855
31.6884
31.6906
31.692
31.6927
30.3259
30.3113
30.2821
30.2391
30.1829
30.1145
30.0347
29.9444
29.8444
29.7357
29.6187
29.4943
29.3629
29.225
29.0813
28.9321
28.7778
28.6188
28.4555
28.2883
28.1174
27.9432
27.7661
27.5862
27.4039
27.2195
27.0331
26.8452
26.6559
26.4655
26.2742
26.0822
25.8898
25.6972
25.5046
25.3122
25.1202
24.9288
24.7381
24.5485
24.3599
24.1726
23.9868
23.8026
23.6202
23.4396
23.2611
23.0848
22.9108
22.7391
22.5701
22.4036
22.24
22.0791
21.9213
21.7664
21.6147
21.4662
21.321
21.1791
21.0406
20.9056
20.7742
20.6463
20.522
20.4015
20.2846
20.1715
20.0621
19.9566
19.8549
19.757
19.663
19.5728
19.4865
19.4041
19.3256
19.251
19.1802
19.1133
19.0502
18.991
18.9356
18.8839
18.8361
18.792
18.7516
18.7149
18.6819
18.6525
18.6267
18.6044
18.5856
18.5703
18.5584
18.5499
18.5447
18.5428
18.5442
18.5487
18.5563
18.5671
18.5808
18.5976
18.6172
18.6397
18.665
18.6931
18.7238
18.7572
18.7932
18.8317
18.8726
18.916
18.9617
19.0097
19.0599
19.1123
19.1667
19.2233
19.2818
19.3423
19.4047
19.4689
19.5348
19.6025
19.6718
19.7428
19.8153
19.8892
19.9646
20.0414
20.1196
20.199
20.2797
20.3615
20.4445
20.5285
20.6136
20.6997
20.7867
20.8746
20.9634
21.0529
21.1433
21.2343
21.326
21.4184
21.5114
21.6049
21.6989
21.7934
21.8884
21.9837
22.0795
22.1755
22.2719
22.3685
22.4654
22.5625
22.6597
22.7571
22.8546
22.9522
23.0498
23.1475
23.2452
23.3428
23.4404
23.5379
23.6353
23.7326
23.8297
23.9267
24.0235
24.1201
24.2164
24.3125
24.4083
24.5039
24.5991
24.694
24.7886
24.8828
24.9766
25.07
25.1631
25.2557
25.3479
25.4396
25.5309
25.6217
25.712
25.8018
25.8912
25.98
26.0682
26.156
26.2431
26.3298
26.4158
26.5013
26.5862
26.6705
26.7542
26.8373
26.9198
27.0016
27.0828
27.1634
27.2434
27.3227
27.4013
27.4793
27.5566
27.6333
27.7093
27.7846
27.8592
27.9331
28.0064
28.0789
28.1508
28.2219
28.2924
28.3622
28.4312
28.4995
28.5671
28.634
28.7002
28.7657
28.8304
28.8944
28.9577
29.0203
29.0821
29.1432
29.2035
29.2632
29.3221
29.3802
29.4377
29.4943
29.5503
29.6055
29.66
29.7137
29.7667
29.8189
29.8704
29.9212
29.9712
30.0205
30.0691
30.1169
30.1639
30.2102
30.2558
30.3006
30.3447
30.388
30.4306
30.4725
30.5136
30.554
30.5936
30.6325
30.6706
30.708
30.7447
30.7806
30.8158
30.8502
30.8839
30.9169
30.9491
30.9806
31.0114
31.0414
31.0706
31.0992
31.127
31.154
31.1804
31.2059
31.2308
31.2549
31.2783
31.3009
31.3229
31.344
31.3645
31.3842
31.4032
31.4214
31.4389
31.4557
31.4718
31.4871
31.5017
31.5155
31.5287
31.5411
31.5527
31.5637
31.5739
31.5834
31.5921
31.6001
31.6074
31.614
31.6198
31.6249
31.6293
31.6329
31.6358
31.638
31.6395
31.6402
30.286
30.2716
30.2429
30.2005
30.145
30.0773
29.9982
29.9085
29.8091
29.7007
29.5841
29.4599
29.3286
29.1908
29.047
28.8978
28.7434
28.5843
28.421
28.2536
28.0827
27.9084
27.7312
27.5513
27.3689
27.1845
26.9982
26.8102
26.6209
26.4305
26.2393
26.0474
25.855
25.6625
25.47
25.2776
25.0857
24.8944
24.7039
24.5143
24.3258
24.1387
23.953
23.7689
23.5866
23.4062
23.2278
23.0516
22.8777
22.7062
22.5373
22.371
22.2075
22.0468
21.8891
21.7344
21.5828
21.4345
21.2894
21.1477
21.0094
20.8745
20.7432
20.6155
20.4914
20.371
20.2543
20.1413
20.0322
19.9268
19.8252
19.7275
19.6337
19.5437
19.4576
19.3754
19.297
19.2226
19.152
19.0852
19.0223
18.9633
18.908
18.8566
18.8089
18.765
18.7248
18.6883
18.6554
18.6262
18.6006
18.5785
18.5599
18.5447
18.533
18.5247
18.5197
18.5179
18.5194
18.5241
18.532
18.5428
18.5568
18.5737
18.5935
18.6161
18.6416
18.6698
18.7007
18.7343
18.7704
18.809
18.8501
18.8936
18.9395
18.9876
19.038
19.0905
19.1451
19.2018
19.2605
19.3211
19.3836
19.4479
19.514
19.5818
19.6512
19.7223
19.7949
19.869
19.9445
20.0214
20.0997
20.1792
20.2599
20.3419
20.425
20.5091
20.5943
20.6804
20.7676
20.8556
20.9444
21.0341
21.1245
21.2156
21.3074
21.3999
21.4929
21.5865
21.6806
21.7752
21.8702
21.9656
22.0614
22.1575
22.254
22.3507
22.4476
22.5447
22.642
22.7395
22.837
22.9346
23.0323
23.13
23.2277
23.3254
23.423
23.5206
23.618
23.7154
23.8125
23.9095
24.0064
24.103
24.1993
24.2954
24.3913
24.4869
24.5821
24.677
24.7716
24.8658
24.9597
25.0531
25.1462
25.2388
25.331
25.4228
25.514
25.6049
25.6952
25.785
25.8743
25.9632
26.0514
26.1392
26.2264
26.313
26.399
26.4845
26.5694
26.6537
26.7374
26.8205
26.903
26.9848
27.066
27.1466
27.2266
27.3059
27.3845
27.4625
27.5398
27.6165
27.6924
27.7677
27.8424
27.9163
27.9895
28.0621
28.1339
28.2051
28.2755
28.3453
28.4143
28.4826
28.5502
28.6171
28.6833
28.7487
28.8134
28.8774
28.9407
29.0032
29.0651
29.1261
29.1865
29.2461
29.305
29.3631
29.4206
29.4772
29.5332
29.5884
29.6428
29.6965
29.7495
29.8017
29.8532
29.904
29.954
30.0033
30.0518
30.0996
30.1466
30.1929
30.2385
30.2833
30.3274
30.3707
30.4133
30.4551
30.4962
30.5366
30.5762
30.6151
30.6532
30.6906
30.7272
30.7631
30.7983
30.8327
30.8664
30.8994
30.9316
30.9631
30.9938
31.0238
31.0531
31.0816
31.1094
31.1364
31.1628
31.1883
31.2132
31.2373
31.2607
31.2833
31.3052
31.3264
31.3468
31.3665
31.3855
31.4037
31.4212
31.438
31.4541
31.4694
31.484
31.4978
31.5109
31.5233
31.535
31.5459
31.5561
31.5656
31.5743
31.5824
31.5896
31.5962
31.602
31.6071
31.6115
31.6151
31.6181
31.6202
31.6217
31.6224
30.2308
30.2163
30.1874
30.1448
30.089
30.0209
29.9413
29.8511
29.7511
29.6421
29.5249
29.4
29.2682
29.1299
28.9857
28.836
28.6813
28.522
28.3584
28.1909
28.0198
27.8455
27.6683
27.4884
27.3061
27.1217
26.9355
26.7477
26.5585
26.3683
26.1772
25.9855
25.7934
25.6011
25.4088
25.2167
25.025
24.834
24.6437
24.4544
24.2662
24.0793
23.8939
23.7101
23.528
23.3479
23.1698
22.9939
22.8203
22.6491
22.4805
22.3145
22.1513
21.9909
21.8335
21.6791
21.5278
21.3798
21.235
21.0936
20.9556
20.821
20.69
20.5626
20.4388
20.3187
20.2023
20.0896
19.9807
19.8756
19.7744
19.6769
19.5834
19.4937
19.4078
19.3259
19.2478
19.1736
19.1033
19.0368
18.9742
18.9154
18.8604
18.8092
18.7618
18.7181
18.6782
18.6419
18.6093
18.5803
18.5548
18.533
18.5146
18.4997
18.4882
18.4801
18.4753
18.4737
18.4755
18.4803
18.4884
18.4994
18.5136
18.5306
18.5506
18.5735
18.5991
18.6275
18.6586
18.6923
18.7286
18.7674
18.8086
18.8522
18.8982
18.9465
18.997
19.0496
19.1044
19.1612
19.22
19.2807
19.3433
19.4078
19.474
19.5418
19.6114
19.6825
19.7552
19.8294
19.905
19.982
20.0603
20.1399
20.2207
20.3027
20.3858
20.4701
20.5553
20.6415
20.7287
20.8167
20.9056
20.9953
21.0857
21.1769
21.2687
21.3612
21.4542
21.5479
21.642
21.7366
21.8316
21.927
22.0228
22.119
22.2154
22.3121
22.409
22.5061
22.6034
22.7008
22.7984
22.896
22.9936
23.0913
23.189
23.2867
23.3843
23.4818
23.5792
23.6765
23.7736
23.8706
23.9674
24.0639
24.1603
24.2563
24.3522
24.4477
24.5429
24.6377
24.7323
24.8264
24.9202
25.0136
25.1066
25.1992
25.2914
25.3831
25.4743
25.565
25.6553
25.7451
25.8344
25.9231
26.0113
26.099
26.1861
26.2727
26.3587
26.4441
26.5289
26.6132
26.6968
26.7798
26.8622
26.944
27.0252
27.1057
27.1856
27.2648
27.3434
27.4213
27.4985
27.5751
27.651
27.7262
27.8008
27.8747
27.9478
28.0203
28.0921
28.1632
28.2336
28.3032
28.3722
28.4404
28.508
28.5748
28.6409
28.7063
28.7709
28.8349
28.8981
28.9606
29.0223
29.0833
29.1436
29.2032
29.262
29.3201
29.3775
29.4341
29.4899
29.5451
29.5995
29.6531
29.7061
29.7582
29.8097
29.8604
29.9103
29.9595
30.008
30.0557
30.1027
30.149
30.1945
30.2392
30.2833
30.3265
30.3691
30.4109
30.4519
30.4922
30.5318
30.5706
30.6087
30.6461
30.6827
30.7186
30.7537
30.7881
30.8217
30.8547
30.8868
30.9183
30.949
30.9789
31.0082
31.0366
31.0644
31.0914
31.1177
31.1432
31.1681
31.1921
31.2155
31.2381
31.26
31.2811
31.3015
31.3212
31.3402
31.3584
31.3759
31.3926
31.4087
31.424
31.4385
31.4524
31.4655
31.4778
31.4895
31.5004
31.5106
31.5201
31.5288
31.5368
31.5441
31.5506
31.5565
31.5615
31.5659
31.5695
31.5725
31.5746
31.5761
31.5768
30.1752
30.161
30.1326
30.0908
30.0358
29.9687
29.89
29.8006
29.7014
29.593
29.4763
29.3518
29.2202
29.0821
28.938
28.7883
28.6335
28.4741
28.3105
28.1429
27.9717
27.7973
27.62
27.44
27.2577
27.0732
26.887
26.6992
26.5101
26.3199
26.1288
25.9372
25.7451
25.5529
25.3607
25.1687
24.9771
24.7862
24.596
24.4068
24.2188
24.0321
23.8468
23.6631
23.4813
23.3013
23.1234
22.9477
22.7742
22.6032
22.4348
22.269
22.106
21.9458
21.7886
21.6344
21.4833
21.3355
21.1909
21.0497
20.9119
20.7776
20.6468
20.5196
20.3961
20.2762
20.16
20.0476
19.9389
19.8341
19.733
19.6359
19.5425
19.4531
19.3675
19.2858
19.208
19.134
19.0639
18.9977
18.9353
18.8768
18.8221
18.7712
18.724
18.6806
18.6409
18.6049
18.5725
18.5438
18.5186
18.497
18.4789
18.4642
18.453
18.4451
18.4406
18.4393
18.4413
18.4464
18.4547
18.466
18.4803
18.4977
18.5179
18.541
18.5669
18.5955
18.6268
18.6608
18.6973
18.7363
18.7778
18.8216
18.8678
18.9163
18.967
19.0199
19.0749
19.1319
19.1909
19.2518
19.3146
19.3793
19.4457
19.5138
19.5835
19.6548
19.7277
19.802
19.8778
19.955
20.0335
20.1133
20.1942
20.2764
20.3597
20.4441
20.5294
20.6158
20.7031
20.7913
20.8803
20.9702
21.0607
21.152
21.244
21.3366
21.4298
21.5235
21.6178
21.7125
21.8076
21.9032
21.9991
22.0953
22.1918
22.2886
22.3856
22.4828
22.5802
22.6777
22.7754
22.873
22.9708
23.0686
23.1663
23.264
23.3617
23.4593
23.5568
23.6541
23.7514
23.8484
23.9452
24.0418
24.1382
24.2343
24.3302
24.4258
24.521
24.6159
24.7105
24.8047
24.8985
24.992
25.085
25.1776
25.2698
25.3615
25.4528
25.5436
25.6339
25.7237
25.813
25.9017
25.99
26.0777
26.1648
26.2514
26.3374
26.4228
26.5077
26.5919
26.6756
26.7586
26.841
26.9228
27.004
27.0845
27.1644
27.2436
27.3222
27.4001
27.4774
27.5539
27.6298
27.7051
27.7796
27.8535
27.9267
27.9991
28.0709
28.142
28.2124
28.282
28.351
28.4192
28.4868
28.5536
28.6197
28.6851
28.7497
28.8136
28.8768
28.9393
29.001
29.0621
29.1223
29.1819
29.2407
29.2988
29.3561
29.4127
29.4686
29.5237
29.5781
29.6317
29.6846
29.7368
29.7882
29.8389
29.8889
29.9381
29.9865
30.0342
30.0812
30.1274
30.1729
30.2177
30.2617
30.305
30.3475
30.3893
30.4303
30.4706
30.5102
30.549
30.5871
30.6244
30.661
30.6969
30.732
30.7663
30.8
30.8329
30.8651
30.8965
30.9272
30.9571
30.9863
31.0148
31.0426
31.0696
31.0958
31.1214
31.1462
31.1703
31.1936
31.2162
31.2381
31.2592
31.2796
31.2993
31.3182
31.3364
31.3539
31.3707
31.3867
31.402
31.4165
31.4304
31.4435
31.4558
31.4675
31.4784
31.4886
31.4981
31.5068
31.5148
31.5221
31.5286
31.5344
31.5395
31.5439
31.5475
31.5504
31.5526
31.5541
31.5548
30.107
30.093
30.0648
30.0232
29.9685
29.9017
29.8232
29.7341
29.6349
29.5266
29.4098
29.2852
29.1535
29.0152
28.8708
28.7209
28.566
28.4064
28.2425
28.0748
27.9035
27.729
27.5516
27.3715
27.1892
27.0048
26.8186
26.6309
26.4419
26.2518
26.0609
25.8694
25.6775
25.4854
25.2934
25.1016
24.9103
24.7195
24.5296
24.3407
24.1529
23.9664
23.7814
23.598
23.4164
23.2367
23.0591
22.8836
22.7105
22.5398
22.3716
22.2061
22.0434
21.8835
21.7266
21.5727
21.422
21.2745
21.1302
20.9893
20.8518
20.7178
20.5874
20.4605
20.3373
20.2177
20.1018
19.9897
19.8814
19.7769
19.6762
19.5793
19.4863
19.3972
19.3119
19.2306
19.1531
19.0794
19.0097
18.9438
18.8817
18.8235
18.7691
18.7185
18.6716
18.6285
18.5892
18.5535
18.5214
18.493
18.4681
18.4468
18.429
18.4146
18.4037
18.3961
18.3919
18.3909
18.3932
18.3986
18.4071
18.4187
18.4334
18.451
18.4715
18.4948
18.521
18.5499
18.5814
18.6156
18.6524
18.6917
18.7334
18.7775
18.8239
18.8726
18.9236
18.9767
19.0318
19.0891
19.1483
19.2094
19.2725
19.3373
19.4039
19.4721
19.5421
19.6136
19.6866
19.7611
19.8371
19.9144
19.9931
20.073
20.1541
20.2365
20.3199
20.4044
20.4899
20.5764
20.6638
20.7522
20.8413
20.9313
21.022
21.1134
21.2054
21.2981
21.3914
21.4852
21.5796
21.6744
21.7696
21.8652
21.9612
22.0575
22.1541
22.251
22.348
22.4453
22.5427
22.6403
22.738
22.8357
22.9335
23.0313
23.1291
23.2269
23.3246
23.4222
23.5197
23.6171
23.7143
23.8114
23.9082
24.0049
24.1013
24.1974
24.2933
24.3888
24.4841
24.579
24.6736
24.7678
24.8616
24.9551
25.0481
25.1407
25.2329
25.3246
25.4158
25.5066
25.5969
25.6867
25.7759
25.8647
25.9529
26.0406
26.1277
26.2142
26.3002
26.3856
26.4704
26.5547
26.6383
26.7213
26.8037
26.8854
26.9666
27.0471
27.1269
27.2061
27.2846
27.3625
27.4397
27.5163
27.5922
27.6673
27.7419
27.8157
27.8888
27.9612
28.033
28.104
28.1744
28.244
28.3129
28.3811
28.4486
28.5154
28.5814
28.6467
28.7114
28.7752
28.8384
28.9008
28.9625
29.0235
29.0837
29.1432
29.202
29.26
29.3173
29.3739
29.4297
29.4848
29.5392
29.5928
29.6456
29.6977
29.7491
29.7998
29.8497
29.8988
29.9473
29.9949
30.0419
30.0881
30.1335
30.1782
30.2222
30.2654
30.3079
30.3497
30.3907
30.4309
30.4705
30.5093
30.5473
30.5846
30.6212
30.657
30.6921
30.7264
30.76
30.7929
30.825
30.8564
30.8871
30.917
30.9462
30.9747
31.0024
31.0294
31.0556
31.0811
31.1059
31.13
31.1533
31.1759
31.1977
31.2188
31.2392
31.2589
31.2778
31.296
31.3135
31.3302
31.3462
31.3615
31.376
31.3898
31.4029
31.4153
31.4269
31.4378
31.448
31.4574
31.4662
31.4742
31.4814
31.488
31.4938
31.4989
31.5032
31.5069
31.5098
31.5119
31.5134
31.5141
30.0374
30.0237
29.9961
29.9553
29.9015
29.8357
29.7583
29.6701
29.5719
29.4643
29.3482
29.2241
29.0928
28.9548
28.8106
28.6608
28.5059
28.3462
28.1823
28.0145
27.8431
27.6686
27.4911
27.311
27.1286
26.9442
26.758
26.5702
26.3812
26.1911
26.0003
25.8088
25.617
25.425
25.2331
25.0415
24.8502
24.6596
24.4698
24.2811
24.0934
23.9071
23.7223
23.5391
23.3577
23.1782
23.0007
22.8255
22.6526
22.4821
22.3142
22.1489
21.9864
21.8268
21.6701
21.5165
21.366
21.2187
21.0747
20.9341
20.7969
20.6632
20.533
20.4064
20.2835
20.1642
20.0486
19.9368
19.8288
19.7246
19.6242
19.5276
19.435
19.3461
19.2612
19.1801
19.103
19.0297
18.9602
18.8947
18.833
18.7751
18.721
18.6707
18.6242
18.5814
18.5424
18.507
18.4753
18.4472
18.4227
18.4017
18.3843
18.3703
18.3597
18.3524
18.3485
18.3479
18.3505
18.3562
18.3651
18.377
18.392
18.4099
18.4308
18.4544
18.4809
18.5101
18.542
18.5765
18.6136
18.6532
18.6952
18.7396
18.7864
18.8354
18.8866
18.94
18.9955
19.053
19.1125
19.1739
19.2372
19.3023
19.3692
19.4377
19.5079
19.5797
19.653
19.7278
19.804
19.8815
19.9604
20.0406
20.122
20.2045
20.2882
20.3729
20.4586
20.5454
20.633
20.7215
20.8109
20.901
20.9919
21.0835
21.1758
21.2686
21.3621
21.4561
21.5506
21.6456
21.7409
21.8367
21.9329
22.0293
22.1261
22.2231
22.3203
22.4177
22.5153
22.613
22.7108
22.8087
22.9066
23.0045
23.1024
23.2003
23.2981
23.3958
23.4934
23.5909
23.6882
23.7854
23.8823
23.9791
24.0755
24.1718
24.2677
24.3633
24.4587
24.5537
24.6483
24.7426
24.8365
24.93
25.0231
25.1157
25.208
25.2997
25.391
25.4818
25.5722
25.662
25.7513
25.8401
25.9284
26.0161
26.1032
26.1898
26.2758
26.3613
26.4461
26.5304
26.614
26.697
26.7794
26.8612
26.9424
27.0229
27.1028
27.182
27.2605
27.3384
27.4156
27.4922
27.5681
27.6433
27.7178
27.7916
27.8648
27.9372
28.009
28.08
28.1503
28.22
28.2889
28.3571
28.4246
28.4914
28.5574
28.6227
28.6873
28.7512
28.8144
28.8768
28.9385
28.9995
29.0597
29.1192
29.178
29.236
29.2933
29.3498
29.4056
29.4607
29.5151
29.5687
29.6215
29.6736
29.725
29.7756
29.8255
29.8747
29.9231
29.9708
30.0177
30.0639
30.1093
30.154
30.198
30.2412
30.2837
30.3254
30.3664
30.4067
30.4462
30.4849
30.523
30.5603
30.5968
30.6326
30.6677
30.7021
30.7357
30.7685
30.8006
30.832
30.8627
30.8926
30.9218
30.9502
30.9779
31.0049
31.0311
31.0566
31.0814
31.1055
31.1288
31.1513
31.1732
31.1943
31.2147
31.2343
31.2532
31.2714
31.2889
31.3056
31.3216
31.3369
31.3514
31.3652
31.3783
31.3907
31.4023
31.4132
31.4234
31.4328
31.4415
31.4495
31.4568
31.4633
31.4691
31.4742
31.4786
31.4822
31.4851
31.4873
31.4887
31.4895
29.9573
29.9437
29.9165
29.8762
29.8231
29.7578
29.6811
29.5935
29.4958
29.3887
29.2729
29.1491
29.0179
28.88
28.7358
28.586
28.431
28.2713
28.1073
27.9394
27.7679
27.5932
27.4157
27.2355
27.0531
26.8687
26.6825
26.4948
26.3058
26.1158
25.9251
25.7337
25.5421
25.3502
25.1585
24.967
24.776
24.5856
24.396
24.2074
24.02
23.834
23.6494
23.4665
23.2853
23.1061
22.9289
22.754
22.5814
22.4112
22.2435
22.0786
21.9164
21.7571
21.6007
21.4474
21.2973
21.1503
21.0067
20.8664
20.7296
20.5962
20.4664
20.3401
20.2175
20.0986
19.9834
19.872
19.7643
19.6605
19.5604
19.4643
19.372
19.2835
19.199
19.1183
19.0415
18.9686
18.8995
18.8344
18.773
18.7155
18.6618
18.6119
18.5658
18.5235
18.4848
18.4498
18.4185
18.3908
18.3667
18.3461
18.329
18.3153
18.3051
18.2983
18.2947
18.2945
18.2974
18.3036
18.3128
18.3251
18.3405
18.3587
18.3799
18.404
18.4308
18.4603
18.4926
18.5274
18.5648
18.6048
18.6471
18.6919
18.7389
18.7883
18.8398
18.8935
18.9493
19.0071
19.0669
19.1287
19.1922
19.2576
19.3248
19.3936
19.464
19.5361
19.6097
19.6847
19.7612
19.839
19.9181
19.9985
20.0801
20.1629
20.2468
20.3317
20.4177
20.5046
20.5925
20.6812
20.7707
20.8611
20.9521
21.0439
21.1364
21.2294
21.323
21.4172
21.5119
21.607
21.7025
21.7985
21.8948
21.9914
22.0883
22.1854
22.2827
22.3803
22.478
22.5758
22.6737
22.7717
22.8697
22.9677
23.0657
23.1637
23.2616
23.3594
23.4571
23.5547
23.6521
23.7493
23.8463
23.9431
24.0396
24.1359
24.2319
24.3276
24.423
24.5181
24.6128
24.7071
24.801
24.8946
24.9877
25.0804
25.1726
25.2644
25.3558
25.4466
25.537
25.6268
25.7161
25.8049
25.8932
25.9809
26.0681
26.1547
26.2407
26.3262
26.411
26.4953
26.5789
26.662
26.7444
26.8261
26.9073
26.9878
27.0677
27.1469
27.2254
27.3033
27.3805
27.4571
27.5329
27.6081
27.6826
27.7565
27.8296
27.902
27.9737
28.0447
28.1151
28.1847
28.2536
28.3218
28.3892
28.456
28.522
28.5873
28.6519
28.7158
28.7789
28.8413
28.903
28.9639
29.0241
29.0836
29.1423
29.2003
29.2576
29.3141
29.3699
29.4249
29.4793
29.5328
29.5857
29.6377
29.6891
29.7397
29.7896
29.8387
29.8871
29.9347
29.9816
30.0278
30.0732
30.1179
30.1618
30.205
30.2474
30.2892
30.3301
30.3704
30.4098
30.4486
30.4866
30.5239
30.5604
30.5962
30.6312
30.6656
30.6991
30.732
30.7641
30.7954
30.8261
30.856
30.8851
30.9135
30.9412
30.9682
30.9944
31.0199
31.0447
31.0687
31.092
31.1145
31.1363
31.1574
31.1778
31.1974
31.2163
31.2345
31.252
31.2687
31.2847
31.2999
31.3144
31.3282
31.3413
31.3537
31.3653
31.3762
31.3863
31.3958
31.4045
31.4125
31.4197
31.4263
31.4321
31.4372
31.4415
31.4451
31.448
31.4502
31.4517
31.4524
29.8747
29.8614
29.8347
29.7951
29.743
29.6788
29.6031
29.5166
29.4199
29.3138
29.1988
29.0756
28.945
28.8074
28.6636
28.514
28.3591
28.1995
28.0355
27.8675
27.696
27.5213
27.3437
27.1635
26.9811
26.7966
26.6104
26.4227
26.2337
26.0438
25.8531
25.6618
25.4702
25.2785
25.0868
24.8955
24.7046
24.5143
24.3249
24.1365
23.9493
23.7634
23.579
23.3963
23.2154
23.0364
22.8594
22.6847
22.5124
22.3424
22.1751
22.0104
21.8485
21.6894
21.5334
21.3804
21.2305
21.0839
20.9405
20.8006
20.664
20.531
20.4015
20.2756
20.1534
20.0348
19.9199
19.8089
19.7016
19.5981
19.4984
19.4026
19.3107
19.2227
19.1385
19.0582
18.9818
18.9093
18.8406
18.7759
18.7149
18.6578
18.6046
18.5551
18.5094
18.4674
18.4292
18.3946
18.3637
18.3364
18.3127
18.2926
18.2759
18.2627
18.2529
18.2465
18.2433
18.2435
18.2469
18.2534
18.2631
18.2758
18.2916
18.3103
18.3319
18.3563
18.3836
18.4135
18.4462
18.4814
18.5192
18.5596
18.6023
18.6474
18.6949
18.7446
18.7965
18.8506
18.9068
18.965
19.0251
19.0872
19.1512
19.2169
19.2844
19.3535
19.4243
19.4967
19.5706
19.646
19.7228
19.8009
19.8804
19.9611
20.043
20.1261
20.2102
20.2955
20.3817
20.4689
20.557
20.646
20.7359
20.8264
20.9178
21.0098
21.1025
21.1958
21.2897
21.3841
21.4789
21.5743
21.6701
21.7662
21.8627
21.9595
22.0566
22.1539
22.2515
22.3492
22.4471
22.545
22.6431
22.7413
22.8395
22.9376
23.0358
23.1339
23.232
23.3299
23.4278
23.5255
23.623
23.7204
23.8175
23.9144
24.0111
24.1075
24.2036
24.2994
24.3949
24.4901
24.5849
24.6793
24.7733
24.8669
24.9602
25.0529
25.1453
25.2371
25.3286
25.4195
25.5099
25.5998
25.6892
25.7781
25.8664
25.9542
26.0414
26.1281
26.2142
26.2997
26.3846
26.4689
26.5525
26.6356
26.7181
26.7999
26.8811
26.9616
27.0415
27.1207
27.1993
27.2772
27.3545
27.4311
27.507
27.5822
27.6567
27.7305
27.8037
27.8761
27.9479
28.0189
28.0892
28.1589
28.2278
28.296
28.3634
28.4302
28.4962
28.5615
28.6261
28.69
28.7531
28.8155
28.8772
28.9382
28.9984
29.0578
29.1166
29.1746
29.2318
29.2884
29.3442
29.3992
29.4535
29.5071
29.5599
29.612
29.6633
29.7139
29.7638
29.8129
29.8613
29.9089
29.9558
30.002
30.0474
30.092
30.136
30.1792
30.2216
30.2633
30.3043
30.3445
30.384
30.4227
30.4607
30.498
30.5345
30.5703
30.6053
30.6396
30.6732
30.706
30.7381
30.7695
30.8001
30.83
30.8591
30.8875
30.9152
30.9422
30.9684
30.9939
31.0186
31.0426
31.0659
31.0885
31.1103
31.1314
31.1517
31.1714
31.1902
31.2084
31.2259
31.2426
31.2585
31.2738
31.2883
31.3021
31.3152
31.3275
31.3391
31.35
31.3602
31.3696
31.3783
31.3863
31.3936
31.4001
31.4059
31.411
31.4153
31.419
31.4219
31.424
31.4255
31.4262
29.7828
29.7697
29.7435
29.7045
29.6531
29.5898
29.5149
29.4293
29.3334
29.2279
29.1136
28.991
28.8607
28.7235
28.5799
28.4304
28.2757
28.1161
27.9521
27.7841
27.6126
27.4378
27.2601
27.0799
26.8974
26.713
26.5267
26.3391
26.1502
25.9603
25.7697
25.5785
25.387
25.1954
25.004
24.8128
24.622
24.432
24.2428
24.0546
23.8676
23.682
23.4979
23.3154
23.1347
22.956
22.7794
22.605
22.4329
22.2633
22.0962
21.9319
21.7703
21.6116
21.4559
21.3032
21.1537
21.0074
20.8645
20.7249
20.5887
20.4561
20.327
20.2014
20.0796
19.9614
19.847
19.7363
19.6294
19.5264
19.4272
19.3318
19.2403
19.1527
19.0689
18.9891
18.9132
18.8411
18.7729
18.7086
18.6481
18.5915
18.5386
18.4896
18.4444
18.4029
18.3651
18.331
18.3006
18.2737
18.2505
18.2308
18.2146
18.2019
18.1925
18.1866
18.1839
18.1845
18.1884
18.1954
18.2055
18.2187
18.2349
18.254
18.2761
18.301
18.3286
18.3591
18.3921
18.4278
18.4661
18.5068
18.55
18.5955
18.6434
18.6935
18.7459
18.8003
18.8569
18.9155
18.976
19.0385
19.1028
19.1689
19.2368
19.3063
19.3775
19.4502
19.5245
19.6002
19.6773
19.7558
19.8355
19.9166
19.9988
20.0822
20.1667
20.2522
20.3387
20.4262
20.5146
20.6039
20.694
20.7849
20.8765
20.9688
21.0617
21.1552
21.2493
21.344
21.4391
21.5347
21.6307
21.727
21.8237
21.9207
22.018
22.1155
22.2133
22.3112
22.4092
22.5074
22.6057
22.704
22.8023
22.9007
22.999
23.0973
23.1955
23.2936
23.3915
23.4894
23.587