/*--------------------------------*- C++ -*----------------------------------*\
| =========                 |                                                 |
| \\      /  F ield         | OpenFOAM: The Open Source CFD Toolbox           |
|  \\    /   O peration     | Version:  2212                                  |
|   \\  /    A nd           | Website:  www.openfoam.com                      |
|    \\/     M anipulation  |                                                 |
\*---------------------------------------------------------------------------*/
FoamFile
{
    version     2.0;
    format      ascii;
    arch        "LSB;label=32;scalar=64";
    class       surfaceScalarField;
    location    "420";
    object      phi;
}
// * * * * * * * * * * * * * * * * * * * * * * * * * * * * * * * * * * * * * //

dimensions      [1 0 -1 0 0 0 0];

oriented        oriented;

internalField   nonuniform List<scalar> 
408640
(
-2244.77
2241.73
-4465.28
2219.46
-6637.87
2171.53
-8743.26
2104.35
-10768.6
2024.28
-12707.5
1937.82
-14559.1
1850.59
-16327.2
1766.96
-18018
1689.79
-19639.6
1620.57
-21200.3
1559.7
-22708.1
1506.79
-24170.1
1461
-25592.4
1421.29
-26979.9
1386.55
-28336.6
1355.75
-29665.5
1327.99
-30968.9
1302.5
-32248.5
1278.66
-33505.4
1255.99
-34740.5
1234.13
-35954.2
1212.79
-37146.9
1191.79
-38318.8
1171
-39470
1150.32
-40600.6
1129.7
-41710.6
1109.11
-42800.1
1088.54
-43868.9
1067.98
-44917.3
1047.43
-45945.1
1026.91
-46952.4
1006.41
-47939.2
985.953
-48905.6
965.534
-49851.7
945.165
-50777.4
924.851
-51682.9
904.599
-52568.1
884.414
-53433.3
864.302
-54278.4
844.267
-55103.6
824.314
-55908.9
804.446
-56694.4
784.669
-57460.2
764.985
-58206.5
745.398
-58933.2
725.913
-59640.6
706.533
-60328.6
687.261
-60997.5
668.101
-61647.4
649.055
-62278.3
630.129
-62890.5
611.325
-63483.9
592.645
-64058.8
574.095
-64615.2
555.677
-65153.4
537.394
-65673.4
519.249
-66175.4
501.247
-66659.6
483.389
-67126
465.679
-67574.9
448.12
-68006.3
430.716
-68420.5
413.468
-68817.6
396.381
-69197.8
379.456
-69561.2
362.697
-69908
346.106
-70238.4
329.686
-70552.5
313.439
-70850.5
297.369
-71132.7
281.477
-71399.1
265.765
-71650
250.236
-71885.5
234.892
-72105.9
219.735
-72311.3
204.766
-72501.9
189.989
-72677.9
175.403
-72839.6
161.012
-72987
146.815
-73120.4
132.816
-73240
119.015
-73346
105.413
-73438.5
92.0111
-73517.9
78.8108
-73584.3
65.8125
-73637.8
53.0172
-73678.8
40.4254
-73707.3
28.0376
-73723.7
15.8543
-73728.1
3.87581
-73720.7
-7.8977
-73701.7
-19.4661
-73671.3
-30.8294
-73629.8
-41.9877
-73577.3
-52.9412
-73514.1
-63.6902
-73440.3
-74.2351
-73356.2
-84.5764
-73261.9
-94.7146
-73157.6
-104.65
-73043.7
-114.385
-72920.1
-123.918
-72787.3
-133.252
-72645.3
-142.387
-72494.3
-151.324
-72334.6
-160.065
-72166.3
-168.611
-71989.7
-176.962
-71804.9
-185.121
-71612.2
-193.09
-71411.6
-200.868
-71203.5
-208.459
-70987.9
-215.863
-70765.1
-223.083
-70535.3
-230.12
-70298.5
-236.976
-70055.2
-243.653
-69805.3
-250.152
-69549
-256.477
-69286.6
-262.628
-69018.2
-268.608
-68744
-274.419
-68464.2
-280.062
-68178.8
-285.541
-67888.2
-290.858
-67592.3
-296.013
-67291.5
-301.011
-66985.8
-305.852
-66675.4
-310.54
-66360.5
-315.076
-66041.1
-319.463
-65717.6
-323.703
-65389.9
-327.799
-65058.2
-331.752
-64722.8
-335.565
-64383.6
-339.242
-64040.9
-342.782
-63694.8
-346.19
-63345.4
-349.468
-62992.8
-352.618
-62637.2
-355.641
-62278.7
-358.542
-61917.5
-361.321
-61553.5
-363.982
-61187
-366.526
-60818
-368.957
-60446.8
-371.275
-60073.3
-373.485
-59697.7
-375.587
-59320.1
-377.584
-58940.5
-379.478
-58559.2
-381.272
-58176.2
-382.968
-57791.6
-384.568
-57405.5
-386.074
-57017.9
-387.489
-56629
-388.814
-56238.9
-390.052
-55847.6
-391.204
-55455.2
-392.274
-55061.8
-393.262
-54667.6
-394.171
-54272.4
-395.003
-53876.5
-395.76
-53480
-396.444
-53082.8
-397.056
-52685
-397.6
-52286.8
-398.075
-51888.2
-398.486
-51489.2
-398.832
-51089.9
-399.117
-50690.3
-399.341
-50290.7
-399.508
-49890.8
-399.617
-49491
-399.671
-49091.1
-399.672
-48691.3
-399.622
-48291.5
-399.521
-47891.9
-399.372
-47492.5
-399.176
-47093.4
-398.934
-46694.5
-398.649
-46295.9
-398.321
-45897.7
-397.953
-45499.9
-397.544
-45102.6
-397.098
-44705.7
-396.615
-44309.3
-396.097
-43913.5
-395.544
-43518.3
-394.959
-43123.7
-394.342
-42729.7
-393.695
-42336.4
-393.018
-41943.8
-392.314
-41551.9
-391.584
-41160.8
-390.827
-40770.4
-390.047
-40380.9
-389.243
-39992.1
-388.416
-39604.3
-387.569
-39217.2
-386.701
-38831.1
-385.815
-38445.9
-384.91
-38061.5
-383.988
-37678.2
-383.049
-37295.7
-382.096
-36914.3
-381.127
-36533.8
-380.146
-36154.3
-379.151
-35775.8
-378.145
-35398.3
-377.128
-35021.9
-376.1
-34646.4
-375.063
-34272.1
-374.018
-33898.7
-372.964
-33526.5
-371.903
-33155.3
-370.836
-32785.1
-369.762
-32416.1
-368.684
-32048.1
-367.601
-31681.2
-366.514
-31315.4
-365.424
-30950.7
-364.332
-30587.1
-363.237
-30224.6
-362.141
-29863.2
-361.044
-29502.8
-359.946
-29143.6
-358.849
-28785.5
-357.752
-28428.4
-356.657
-28072.5
-355.563
-27717.6
-354.472
-27363.9
-353.383
-27011.2
-352.297
-26659.6
-351.215
-26309
-350.137
-25959.6
-349.063
-25611.2
-347.994
-25263.9
-346.93
-24917.6
-345.872
-24572.4
-344.82
-24228.2
-343.773
-23885.1
-342.734
-23543
-341.701
-23202
-340.676
-22861.9
-339.659
-22522.9
-338.649
-22184.8
-337.648
-21847.8
-336.655
-21511.7
-335.671
-21176.6
-334.697
-20842.5
-333.731
-20509.3
-332.775
-20177.1
-331.829
-19845.8
-330.894
-19515.5
-329.968
-19186
-329.054
-18857.5
-328.15
-18529.8
-327.257
-18203.1
-326.375
-17877.2
-325.505
-17552.1
-324.647
-17228
-323.8
-16904.6
-322.965
-16582.1
-322.143
-16260.4
-321.333
-15939.4
-320.536
-15619.3
-319.751
-15299.9
-318.979
-14981.3
-318.22
-14663.5
-317.474
-14346.4
-316.742
-14030
-316.023
-13714.3
-315.318
-13399.2
-314.626
-13084.9
-313.948
-12771.3
-313.284
-12458.3
-312.634
-12145.9
-311.999
-11834.1
-311.377
-11523
-310.77
-11212.4
-310.177
-10902.5
-309.599
-10593.1
-309.036
-10284.2
-308.487
-9975.87
-307.953
-9668.07
-307.434
-9360.77
-306.93
-9053.96
-306.441
-8747.63
-305.968
-8441.75
-305.509
-8136.32
-305.066
-7831.32
-304.638
-7526.73
-304.225
-7222.54
-303.828
-6918.73
-303.446
-6615.29
-303.08
-6312.2
-302.729
-6009.44
-302.394
-5707.01
-302.075
-5404.88
-301.772
-5103.04
-301.484
-4801.46
-301.212
-4500.15
-300.956
-4199.08
-300.716
-3898.23
-300.493
-3597.58
-300.285
-3297.13
-300.094
-2996.86
-299.92
-2696.74
-299.762
-2396.76
-299.621
-2096.91
-299.496
-1797.17
-299.389
-1497.51
-299.3
-1197.93
-299.227
-898.406
-299.172
-598.919
-299.133
-299.455
-299.11
-299.1
-2221.04
4461.73
-4420.33
4417.7
-6575.62
4325.78
-8668.83
4196.51
-10687.6
4041.98
-12625.1
3874.28
-14479.8
3704.19
-16254
3540.12
-17953
3387.77
-19583.7
3250.24
-21153.6
3128.52
-22669.9
3022.1
-24139.4
2929.53
-25568
2848.92
-26960.6
2778.21
-28321.3
2715.43
-29653.1
2658.84
-30958.4
2606.94
-32239.2
2558.5
-33496.7
2512.54
-34731.8
2468.33
-35945.2
2425.28
-37137.3
2383
-38308.4
2341.2
-39458.7
2299.69
-40588.3
2258.35
-41697.1
2217.1
-42785.4
2175.91
-43853.1
2134.76
-44900.2
2093.66
-45926.8
2052.6
-46932.9
2011.61
-47918.5
1970.69
-48883.7
1929.86
-49828.6
1889.13
-50753.1
1848.51
-51657.4
1808.02
-52541.5
1767.67
-53405.5
1727.45
-54249.5
1687.4
-55073.5
1647.51
-55877.7
1607.79
-56662.1
1568.25
-57426.9
1528.89
-58172.1
1489.74
-58897.8
1450.78
-59604.1
1412.04
-60291.2
1373.51
-60959.1
1335.2
-61608
1297.13
-62237.9
1259.29
-62849.1
1221.7
-63441.6
1184.36
-64015.6
1147.27
-64571.1
1110.45
-65108.4
1073.9
-65627.5
1037.63
-66128.7
1001.64
-66612
965.937
-67077.6
930.533
-67525.6
895.431
-67956.3
860.637
-68369.7
826.157
-68766
791.998
-69145.5
758.163
-69508.1
724.661
-69854.2
691.494
-70183.9
658.67
-70497.3
626.192
-70794.7
594.066
-71076.2
562.297
-71342
530.889
-71592.2
499.846
-71827.2
469.173
-72046.9
438.874
-72251.8
408.952
-72441.8
379.412
-72617.3
350.256
-72778.3
321.488
-72925.2
293.11
-73058.1
265.127
-73177.2
237.539
-73282.7
210.35
-73374.9
183.561
-73453.8
157.175
-73519.7
131.194
-73572.8
105.617
-73613.4
80.4484
-73641.6
55.6873
-73657.6
31.3352
-73661.6
7.39249
-73653.8
-16.1403
-73634.5
-39.2629
-73603.9
-61.9754
-73562
-84.2779
-73509.3
-106.171
-73445.8
-127.655
-73371.7
-148.731
-73287.3
-169.4
-73192.8
-189.663
-73088.3
-209.521
-72974.1
-228.976
-72850.4
-248.03
-72717.4
-266.685
-72575.2
-284.942
-72424.1
-302.803
-72264.2
-320.272
-72095.9
-337.351
-71919.1
-354.041
-71734.2
-370.347
-71541.4
-386.271
-71340.7
-401.816
-71132.5
-416.985
-70916.9
-431.782
-70694
-446.21
-70464.2
-460.272
-70227.4
-473.973
-69984
-487.315
-69734.1
-500.304
-69477.9
-512.941
-69215.5
-525.233
-68947.2
-537.182
-68673
-548.793
-68393.2
-560.071
-68107.9
-571.018
-67817.3
-581.641
-67521.6
-591.942
-67220.8
-601.928
-66915.2
-611.601
-66605
-620.967
-66290.2
-630.03
-65971
-638.795
-65647.5
-647.266
-65320
-655.449
-64988.5
-663.347
-64653.2
-670.965
-64314.2
-678.309
-63971.7
-685.383
-63625.8
-692.191
-63276.6
-698.739
-62924.2
-705.03
-62568.8
-711.07
-62210.6
-716.864
-61849.5
-722.416
-61485.8
-727.73
-61119.5
-732.812
-60750.8
-737.666
-60379.8
-742.297
-60006.5
-746.709
-59631.2
-750.907
-59253.9
-754.895
-58874.6
-758.678
-58493.6
-762.26
-58110.9
-765.647
-57726.6
-768.841
-57340.7
-771.848
-56953.5
-774.672
-56564.9
-777.318
-56175.1
-779.788
-55784.1
-782.089
-55392
-784.223
-54999
-786.195
-54605.1
-788.008
-54210.3
-789.668
-53814.7
-791.178
-53418.5
-792.542
-53021.6
-793.763
-52624.3
-794.846
-52226.4
-795.794
-51828.1
-796.611
-51429.5
-797.301
-51030.5
-797.867
-50631.4
-798.313
-50232.1
-798.642
-49832.6
-798.858
-49433.2
-798.964
-49033.7
-798.964
-48634.2
-798.86
-48234.9
-798.656
-47835.7
-798.355
-47436.7
-797.961
-47037.9
-797.476
-46639.4
-796.903
-46241.2
-796.246
-45843.4
-795.506
-45446
-794.688
-45049.1
-793.794
-44652.6
-792.826
-44256.6
-791.787
-43861.2
-790.681
-43466.4
-789.509
-43072.2
-788.274
-42678.6
-786.978
-42285.7
-785.625
-41893.6
-784.215
-41502.1
-782.753
-41111.4
-781.239
-40721.4
-779.677
-40332.3
-778.068
-39944
-776.415
-39556.5
-774.719
-39169.9
-772.984
-38784.2
-771.209
-38399.4
-769.399
-38015.5
-767.555
-37632.5
-765.677
-37250.5
-763.77
-36869.5
-761.833
-36489.4
-759.869
-36110.3
-757.88
-35732.3
-755.868
-35355.2
-753.833
-34979.2
-751.778
-34604.2
-749.704
-34230.2
-747.612
-33857.3
-745.505
-33485.5
-743.383
-33114.7
-741.249
-32745
-739.102
-32376.4
-736.945
-32008.8
-734.78
-31642.4
-732.607
-31277
-730.427
-30912.7
-728.242
-30549.5
-726.053
-30187.4
-723.861
-29826.4
-721.667
-29466.5
-719.472
-29107.7
-717.278
-28750
-715.086
-28393.4
-712.895
-28037.8
-710.709
-27683.4
-708.526
-27330
-706.349
-26977.8
-704.178
-26626.6
-702.014
-26276.5
-699.858
-25927.4
-697.711
-25579.5
-695.574
-25232.6
-693.446
-24886.7
-691.33
-24541.9
-689.226
-24198.2
-687.135
-23855.4
-685.056
-23513.8
-682.992
-23173.1
-680.942
-22833.5
-678.908
-22494.8
-676.889
-22157.2
-674.888
-21820.6
-672.903
-21484.9
-670.936
-21150.2
-668.987
-20816.5
-667.056
-20483.7
-665.146
-20151.9
-663.255
-19821
-661.384
-19491.1
-659.534
-19162.1
-657.705
-18833.9
-655.898
-18506.7
-654.113
-18180.3
-652.35
-17854.8
-650.611
-17530.2
-648.894
-17206.4
-647.202
-16883.4
-645.533
-16561.3
-643.889
-16240
-642.27
-15919.5
-640.675
-15599.7
-639.106
-15280.8
-637.563
-14962.5
-636.046
-14645.1
-634.555
-14328.4
-633.091
-14012.3
-631.654
-13697
-630.244
-13382.4
-628.861
-13068.5
-627.506
-12755.2
-626.178
-12442.6
-624.879
-12130.6
-623.608
-11819.3
-622.366
-11508.5
-621.152
-11198.3
-619.968
-10888.8
-618.812
-10579.7
-617.686
-10271.3
-616.589
-9963.32
-615.522
-9655.9
-614.484
-9348.99
-613.477
-9042.57
-612.499
-8736.62
-611.552
-8431.12
-610.635
-8126.08
-609.749
-7821.46
-608.893
-7517.25
-608.068
-7213.44
-607.274
-6910.02
-606.511
-6606.96
-605.779
-6304.25
-605.078
-6001.87
-604.409
-5699.82
-603.77
-5398.07
-603.164
-5096.6
-602.589
-4795.41
-602.045
-4494.48
-601.534
-4193.78
-601.054
-3893.31
-600.607
-3593.05
-600.192
-3292.98
-599.81
-2993.08
-599.461
-2693.34
-599.145
-2393.74
-598.863
-2094.27
-598.615
-1794.91
-598.401
-1495.63
-598.221
-1196.43
-598.076
-897.278
-597.966
-598.168
-597.888
-299.082
-597.843
-597.828
-2195.99
6656.68
-4371.85
6592.54
-6507.72
6460.63
-8587.08
6274.83
-10598.1
6051.92
-12533.7
5808.87
-14391.6
5560.98
-16172.9
5320.38
-17881.7
5095.46
-19523.5
4890.99
-21104.7
4708.77
-22632
4548.38
-24111.5
4408.05
-25548.8
4285.21
-26948.6
4177.07
-28315
4080.87
-29651.2
3994.1
-30959.8
3914.59
-32242.8
3840.52
-33501.6
3770.43
-34737.3
3703.18
-35950.9
3637.89
-37142.7
3573.92
-38313.2
3510.82
-39462.7
3448.25
-40591.3
3386.02
-41699.1
3324
-42786.2
3262.11
-43852.6
3200.32
-44898.5
3138.62
-45923.8
3077.02
-46928.6
3015.52
-47912.9
2954.14
-48876.8
2892.9
-49820.4
2831.81
-50743.6
2770.9
-51646.7
2710.18
-52529.5
2649.67
-53392.3
2589.37
-54235.1
2529.31
-55057.9
2469.49
-55860.9
2409.94
-56644.2
2350.65
-57407.7
2291.64
-58151.8
2232.93
-58876.3
2174.52
-59581.5
2116.43
-60267.5
2058.66
-60934.3
2001.22
-61582.2
1944.14
-62211.1
1887.4
-62821.2
1831.04
-63412.7
1775.04
-63985.6
1719.44
-64540.2
1664.23
-65076.5
1609.43
-65594.7
1555.04
-66094.9
1501.08
-66577.2
1447.55
-67041.9
1394.46
-67489.1
1341.83
-67918.8
1289.67
-68331.4
1237.97
-68726.8
1186.75
-69105.4
1136.02
-69467.2
1085.79
-69812.5
1036.06
-70141.4
986.845
-70454
938.15
-70750.6
889.983
-71031.3
842.351
-71296.3
795.26
-71545.9
748.718
-71780.1
702.73
-71999.1
657.303
-72203.3
612.442
-72392.6
568.153
-72567.4
524.44
-72727.8
481.31
-72874.1
438.765
-73006.4
396.811
-73124.9
355.451
-73229.8
314.689
-73321.3
274.527
-73399.7
234.97
-73465
196.018
-73517.6
157.675
-73557.6
119.943
-73585.3
82.8227
-73600.8
46.3156
-73604.3
10.4227
-73596.1
-24.8554
-73576.3
-59.5184
-73545.2
-93.5662
-73503
-126.999
-73449.8
-159.818
-73385.9
-192.024
-73311.4
-223.617
-73226.7
-254.6
-73131.8
-284.974
-73027
-314.741
-72912.4
-343.903
-72788.4
-372.464
-72655
-400.426
-72512.6
-427.791
-72361.2
-454.564
-72201.1
-480.748
-72032.4
-506.346
-71855.4
-531.363
-71670.3
-555.802
-71477.2
-579.669
-71276.4
-602.968
-71068
-625.703
-70852.2
-647.88
-70629.2
-669.503
-70399.2
-690.578
-70162.3
-711.111
-69918.8
-731.107
-69668.7
-750.572
-69412.4
-769.511
-69149.9
-787.931
-68881.5
-805.838
-68607.3
-823.238
-68327.4
-840.137
-68042.1
-856.542
-67751.5
-872.46
-67455.7
-887.896
-67154.9
-902.858
-66849.3
-917.352
-66539.1
-931.386
-66224.3
-944.965
-65905.1
-958.098
-65581.7
-970.79
-65254.2
-983.049
-64922.8
-994.883
-64587.6
-1006.3
-64248.7
-1017.3
-63906.2
-1027.9
-63560.4
-1038.09
-63211.3
-1047.9
-62859.1
-1057.33
-62503.8
-1066.38
-62145.6
-1075.05
-61784.7
-1083.37
-61421.1
-1091.33
-61055
-1098.94
-60686.5
-1106.21
-60315.7
-1113.14
-59942.6
-1119.75
-59567.5
-1126.04
-59190.3
-1132.01
-58811.3
-1137.67
-58430.5
-1143.04
-58048
-1148.11
-57663.9
-1152.89
-57278.3
-1157.39
-56891.2
-1161.62
-56502.9
-1165.58
-56113.3
-1169.27
-55722.6
-1172.72
-55330.8
-1175.91
-54938.1
-1178.86
-54544.4
-1181.57
-54149.9
-1184.05
-53754.6
-1186.31
-53358.7
-1188.35
-52962.1
-1190.18
-52565
-1191.79
-52167.5
-1193.21
-51769.5
-1194.43
-51371.2
-1195.46
-50972.6
-1196.3
-50573.7
-1196.96
-50174.7
-1197.45
-49775.6
-1197.77
-49376.5
-1197.92
-48977.3
-1197.92
-48578.2
-1197.76
-48179.2
-1197.45
-47780.4
-1196.99
-47381.7
-1196.39
-46983.3
-1195.66
-46585.2
-1194.8
-46187.4
-1193.81
-45789.9
-1192.7
-45392.9
-1191.47
-44996.3
-1190.12
-44600.2
-1188.67
-44204.6
-1187.1
-43809.6
-1185.44
-43415.1
-1183.68
-43021.3
-1181.82
-42628.1
-1179.88
-42235.6
-1177.85
-41843.8
-1175.73
-41452.7
-1173.53
-41062.4
-1171.26
-40672.9
-1168.92
-40284.1
-1166.5
-39896.2
-1164.02
-39509.1
-1161.47
-39122.9
-1158.87
-38737.6
-1156.21
-38353.2
-1153.49
-37969.7
-1150.72
-37587.2
-1147.9
-37205.6
-1145.04
-36824.9
-1142.13
-36445.3
-1139.19
-36066.6
-1136.2
-35688.9
-1133.18
-35312.3
-1130.13
-34936.7
-1127.05
-34562.1
-1123.94
-34188.5
-1120.8
-33816
-1117.64
-33444.6
-1114.45
-33074.2
-1111.25
-32704.9
-1108.03
-32336.7
-1104.8
-31969.6
-1101.55
-31603.5
-1098.29
-31238.6
-1095.02
-30874.7
-1091.74
-30511.9
-1088.46
-30150.2
-1085.17
-29789.6
-1081.88
-29430.1
-1078.59
-29071.8
-1075.3
-28714.4
-1072.01
-28358.2
-1068.72
-28003.1
-1065.44
-27649.1
-1062.17
-27296.1
-1058.9
-26944.3
-1055.65
-26593.5
-1052.4
-26243.8
-1049.17
-25895.2
-1045.95
-25547.6
-1042.74
-25201.1
-1039.55
-24855.7
-1036.38
-24511.3
-1033.22
-24168
-1030.09
-23825.7
-1026.97
-23484.4
-1023.87
-23144.1
-1020.8
-22804.9
-1017.75
-22466.7
-1014.72
-22129.5
-1011.72
-21793.2
-1008.74
-21458
-1005.79
-21123.7
-1002.87
-20790.4
-999.977
-20458
-997.111
-20126.6
-994.276
-19796.1
-991.47
-19466.6
-988.696
-19137.9
-985.954
-18810.2
-983.244
-18483.4
-980.567
-18157.4
-977.924
-17832.3
-975.316
-17508.1
-972.742
-17184.7
-970.204
-16862.1
-967.702
-16540.4
-965.237
-16219.5
-962.808
-15899.3
-960.418
-15580
-958.065
-15261.4
-955.751
-14943.6
-953.477
-14626.6
-951.241
-14310.2
-949.046
-13994.6
-946.891
-13679.7
-944.776
-13365.5
-942.703
-13051.9
-940.671
-12739.1
-938.68
-12426.8
-936.732
-12115.2
-934.827
-11804.3
-932.964
-11493.9
-931.144
-11184.1
-929.368
-10874.9
-927.635
-10566.3
-925.946
-10258.2
-924.301
-9950.66
-922.701
-9643.63
-921.146
-9337.11
-919.635
-9031.07
-918.17
-8725.51
-916.749
-8420.4
-915.375
-8115.74
-914.046
-7811.51
-912.763
-7507.69
-911.526
-7204.26
-910.335
-6901.22
-909.191
-6598.54
-908.093
-6296.22
-907.043
-5994.23
-906.039
-5692.56
-905.082
-5391.19
-904.172
-5090.11
-903.31
-4789.3
-902.495
-4488.75
-901.728
-4188.44
-901.009
-3888.35
-900.339
-3588.47
-899.717
-3288.78
-899.144
-2989.27
-898.62
-2689.91
-898.146
-2390.69
-897.723
-2091.6
-897.351
-1792.62
-897.031
-1493.72
-896.762
-1194.9
-896.544
-896.136
-896.378
-597.407
-896.263
-298.7
-896.196
-896.174
-2163.53
8819.2
-4309.28
8737.27
-6420.17
8570.49
-8481.62
8335.23
-10482.6
8051.8
-12415.8
7741.04
-14278
7422.05
-16068.8
7110.16
-17790.7
6816.29
-19447.7
6546.93
-21044.8
6304.86
-22587.6
6090.1
-24081.3
5900.8
-25531.2
5734.09
-26941.7
5586.64
-28316.9
5455.09
-29660.1
5336.32
-30974
5227.54
-32260.8
5126.41
-33522.3
5030.99
-34759.7
4939.72
-35974.2
4851.41
-37166.3
4765.14
-38336.6
4680.26
-39485.6
4596.29
-40613.4
4512.92
-41720.2
4429.94
-42806.2
4347.22
-43871.5
4264.7
-44916.1
4182.34
-45940.1
4100.14
-46943.6
4018.11
-47926.6
3936.25
-48889.2
3854.6
-49831.4
3773.16
-50753.3
3691.95
-51655
3611.01
-52536.5
3530.34
-53398
3449.97
-54239.4
3369.91
-55061
3290.18
-55862.7
3210.8
-56644.7
3131.77
-57407
3053.13
-58149.7
2974.87
-58873.1
2897.02
-59577
2819.59
-60261.8
2742.59
-60927.4
2666.04
-61574
2589.94
-62201.8
2514.33
-62810.7
2439.2
-63401
2364.57
-63972.8
2290.46
-64526.2
2216.87
-65061.4
2143.83
-65578.5
2071.34
-66077.6
1999.41
-66558.9
1928.07
-67022.5
1857.32
-67468.5
1787.17
-67897.2
1717.64
-68308.7
1648.73
-68703.2
1580.47
-69080.7
1512.86
-69441.5
1445.91
-69785.8
1379.63
-70113.7
1314.04
-70425.4
1249.14
-70721
1184.94
-71000.8
1121.46
-71264.8
1058.69
-71513.4
996.665
-71746.7
935.375
-71964.9
874.832
-72168.1
815.044
-72356.6
756.019
-72530.6
697.763
-72690.1
640.283
-72835.6
583.584
-72967
527.672
-73084.7
472.553
-73188.8
418.231
-73279.5
364.71
-73357.1
311.994
-73421.7
260.086
-73473.6
208.991
-73512.9
158.709
-73539.8
109.243
-73554.6
60.5945
-73557.5
12.7654
-73548.6
-34.2439
-73528.1
-80.4331
-73496.4
-125.802
-73453.5
-170.351
-73399.7
-214.081
-73335.2
-256.994
-73260.1
-299.09
-73174.8
-340.372
-73079.3
-380.843
-72974
-420.504
-72858.9
-459.36
-72734.4
-497.412
-72600.5
-534.667
-72457.6
-571.126
-72305.7
-606.795
-72145.1
-641.679
-71976.1
-675.783
-71798.6
-709.111
-71613.1
-741.669
-71419.6
-773.465
-71218.4
-804.502
-71009.6
-834.789
-70793.5
-864.331
-70570.1
-893.135
-70339.8
-921.209
-70102.6
-948.56
-69858.8
-975.195
-69608.5
-1001.12
-69351.9
-1026.35
-69089.1
-1050.88
-68820.5
-1074.73
-68546
-1097.91
-68265.9
-1120.42
-67980.4
-1142.27
-67689.6
-1163.46
-67393.6
-1184.02
-67092.7
-1203.95
-66787
-1223.25
-66476.6
-1241.94
-66161.7
-1260.02
-65842.4
-1277.51
-65518.9
-1294.41
-65191.3
-1310.73
-64859.8
-1326.49
-64524.5
-1341.69
-64185.6
-1356.33
-63843.1
-1370.44
-63497.3
-1384.02
-63148.2
-1397.08
-62795.9
-1409.62
-62440.7
-1421.67
-62082.6
-1433.22
-61721.7
-1444.29
-61358.1
-1454.88
-60992.1
-1465.01
-60623.6
-1474.69
-60252.8
-1483.92
-59879.9
-1492.71
-59504.8
-1501.07
-59127.8
-1509.02
-58748.9
-1516.56
-58368.2
-1523.69
-57985.8
-1530.44
-57601.8
-1536.8
-57216.4
-1542.78
-56829.5
-1548.41
-56441.3
-1553.67
-56051.9
-1558.59
-55661.4
-1563.16
-55269.8
-1567.41
-54877.2
-1571.33
-54483.8
-1574.93
-54089.5
-1578.23
-53694.4
-1581.23
-53298.7
-1583.93
-52902.4
-1586.35
-52505.6
-1588.5
-52108.2
-1590.38
-51710.5
-1591.99
-51312.5
-1593.35
-50914.1
-1594.47
-50515.6
-1595.34
-50116.9
-1595.98
-49718
-1596.4
-49319.2
-1596.59
-48920.3
-1596.58
-48521.5
-1596.35
-48122.8
-1595.93
-47724.3
-1595.32
-47325.9
-1594.51
-46927.8
-1593.53
-46530
-1592.37
-46132.5
-1591.05
-45735.4
-1589.55
-45338.7
-1587.91
-44942.5
-1586.11
-44546.7
-1584.16
-44151.5
-1582.07
-43756.8
-1579.85
-43362.7
-1577.5
-42969.3
-1575.02
-42576.4
-1572.42
-42184.3
-1569.7
-41792.9
-1566.88
-41402.1
-1563.94
-41012.2
-1560.91
-40623
-1557.78
-40234.7
-1554.55
-39847.1
-1551.24
-39460.4
-1547.84
-39074.6
-1544.37
-38689.7
-1540.81
-38305.7
-1537.19
-37922.6
-1533.49
-37540.4
-1529.74
-37159.2
-1525.92
-36778.9
-1522.04
-36399.7
-1518.11
-36021.4
-1514.13
-35644.2
-1510.1
-35267.9
-1506.03
-34892.7
-1501.91
-34518.5
-1497.76
-34145.4
-1493.58
-33773.3
-1489.36
-33402.3
-1485.11
-33032.3
-1480.84
-32663.4
-1476.55
-32295.6
-1472.23
-31928.9
-1467.9
-31563.3
-1463.55
-31198.7
-1459.19
-30835.3
-1454.82
-30472.9
-1450.44
-30111.6
-1446.06
-29751.5
-1441.67
-29392.4
-1437.28
-29034.4
-1432.9
-28677.5
-1428.51
-28321.7
-1424.13
-27967
-1419.76
-27613.4
-1415.39
-27260.9
-1411.04
-26909.5
-1406.7
-26559.1
-1402.37
-26209.8
-1398.06
-25861.6
-1393.77
-25514.5
-1389.49
-25168.4
-1385.24
-24823.4
-1381.01
-24479.4
-1376.8
-24136.5
-1372.62
-23794.6
-1368.46
-23453.7
-1364.34
-23113.9
-1360.24
-22775.1
-1356.17
-22437.3
-1352.14
-22100.5
-1348.13
-21764.7
-1344.17
-21429.8
-1340.23
-21096
-1336.34
-20763.1
-1332.48
-20431.2
-1328.66
-20100.2
-1324.88
-19770.1
-1321.14
-19441
-1317.44
-19112.7
-1313.79
-18785.4
-1310.17
-18459
-1306.61
-18133.5
-1303.08
-17808.8
-1299.61
-17485
-1296.17
-17162
-1292.79
-16839.8
-1289.46
-16518.5
-1286.17
-16198
-1282.93
-15878.3
-1279.75
-15559.4
-1276.61
-15241.2
-1273.53
-14923.8
-1270.5
-14607.2
-1267.52
-14291.2
-1264.59
-13976
-1261.72
-13661.5
-1258.9
-13347.7
-1256.13
-13034.6
-1253.43
-12722.1
-1250.77
-12410.3
-1248.18
-12099.1
-1245.64
-11788.5
-1243.15
-11478.6
-1240.73
-11169.2
-1238.36
-10860.4
-1236.05
-10552.2
-1233.8
-10244.5
-1231.61
-9937.4
-1229.48
-9630.77
-1227.4
-9324.65
-1225.39
-9019.02
-1223.44
-8713.86
-1221.54
-8409.16
-1219.71
-8104.9
-1217.94
-7801.07
-1216.23
-7497.66
-1214.58
-7194.64
-1212.99
-6892
-1211.47
-6589.72
-1210.01
-6287.8
-1208.61
-5986.21
-1207.27
-5684.95
-1205.99
-5383.98
-1204.78
-5083.3
-1203.63
-4782.9
-1202.54
-4482.75
-1201.52
-4182.83
-1200.56
-3883.15
-1199.67
-3583.67
-1198.84
-3284.38
-1198.08
-2985.27
-1197.38
-2686.31
-1196.75
-2387.5
-1196.18
-2088.8
-1195.69
-1790.22
-1195.26
-1491.73
-1194.9
-1193.31
-1194.61
-894.939
-1194.39
-596.611
-1194.24
-298.304
-1194.15
-1194.12
-2136.14
10954.3
-4256.4
10856.5
-6346.1
10659.2
-8392.32
10380.4
-10384.7
10043.1
-12316.1
9671.36
-14182.4
9287.21
-15982.1
8908.84
-17716.4
8549.44
-19387.7
8217.23
-21000
7916.13
-22557.7
7646.77
-24065.5
7407.56
-25527.9
7195.53
-26949.3
7007.05
-28333.5
6838.35
-29684
6685.81
-31003.5
6546.15
-32294.6
6416.51
-33559
6294.52
-34798.4
6178.22
-36014
6066.05
-37206.6
5956.83
-38376.9
5849.67
-39525.4
5743.91
-40652.5
5639.11
-41758.4
5534.95
-42843.4
5431.25
-43907.4
5327.88
-44950.8
5224.79
-45973.5
5121.95
-46975.6
5019.35
-47957.2
4917
-48918.4
4814.91
-49859.2
4713.11
-50779.8
4611.61
-51680.1
4510.45
-52560.2
4409.63
-53420.3
4309.19
-54260.4
4209.14
-55080.6
4109.51
-55880.9
4010.31
-56661.6
3911.56
-57422.5
3813.28
-58164
3715.49
-58886
3618.2
-59588.7
3521.44
-60272.1
3425.23
-60936.5
3329.57
-61581.8
3234.48
-62208.3
3139.99
-62816
3046.11
-63405.1
2952.86
-63975.7
2860.25
-64527.9
2768.29
-65061.8
2677.02
-65577.7
2586.43
-66075.6
2496.56
-66555.7
2407.41
-67018.1
2319
-67463
2231.34
-67890.6
2144.45
-68300.9
2058.35
-68694.2
1973.05
-69070.6
1888.56
-69430.3
1804.91
-69773.5
1722.09
-70100.3
1640.13
-70410.8
1559.03
-70705.4
1478.81
-70984.1
1399.49
-71247.1
1321.07
-71494.7
1243.56
-71726.9
1166.98
-71944
1091.33
-72146.3
1016.63
-72333.7
942.875
-72506.7
870.086
-72665.3
798.267
-72809.7
727.425
-72940.2
657.568
-73056.9
588.701
-73160.1
520.83
-73249.9
453.962
-73326.5
388.1
-73390.3
323.249
-73441.2
259.412
-73479.6
196.593
-73505.7
134.795
-73519.6
74.0184
-73521.6
14.2662
-73511.9
-44.461
-73490.7
-102.163
-73458.1
-158.839
-73414.4
-214.491
-73359.9
-269.118
-73294.6
-322.724
-73218.8
-375.309
-73132.7
-426.876
-73036.6
-477.428
-72930.5
-526.969
-72814.8
-575.503
-72689.5
-623.033
-72555
-669.565
-72411.4
-715.103
-72258.9
-759.654
-72097.8
-803.222
-71928.1
-845.816
-71750.1
-887.44
-71564
-928.103
-71370
-967.811
-71168.2
-1006.57
-70958.9
-1044.39
-70742.2
-1081.29
-70518.4
-1117.26
-70287.6
-1152.31
-70049.9
-1186.47
-69805.7
-1219.73
-69554.9
-1252.1
-69297.9
-1283.6
-69034.8
-1314.23
-68765.8
-1344.01
-68490.9
-1372.95
-68210.5
-1401.05
-67924.6
-1428.32
-67633.5
-1454.79
-67337.2
-1480.45
-67036
-1505.33
-66730
-1529.42
-66419.4
-1552.75
-66104.2
-1575.33
-65784.7
-1597.15
-65461
-1618.25
-65133.2
-1638.62
-64801.5
-1658.29
-64466
-1677.25
-64126.9
-1695.53
-63784.3
-1713.14
-63438.3
-1730.08
-63089.1
-1746.38
-62736.7
-1762.03
-62381.4
-1777.06
-62023.2
-1791.47
-61662.2
-1805.28
-61298.6
-1818.5
-60932.5
-1831.13
-60564
-1843.2
-60193.2
-1854.71
-59820.2
-1865.68
-59445.2
-1876.11
-59068.2
-1886.02
-58689.3
-1895.42
-58308.6
-1904.31
-57926.3
-1912.72
-57542.4
-1920.65
-57157
-1928.11
-56770.2
-1935.12
-56382.1
-1941.68
-55992.8
-1947.8
-55602.4
-1953.5
-55210.9
-1958.79
-54818.5
-1963.67
-54425.1
-1968.15
-54031
-1972.26
-53636.1
-1975.99
-53240.5
-1979.35
-52844.4
-1982.36
-52447.7
-1985.03
-52050.6
-1987.36
-51653
-1989.36
-51255.2
-1991.05
-50857
-1992.42
-50458.7
-1993.5
-50060.2
-1994.29
-49661.6
-1994.79
-49263
-1995.03
-48864.4
-1994.99
-48465.8
-1994.7
-48067.4
-1994.16
-47669.1
-1993.38
-47271
-1992.37
-46873.2
-1991.12
-46475.7
-1989.67
-46078.5
-1988
-45681.7
-1986.12
-45285.3
-1984.05
-44889.3
-1981.79
-44493.9
-1979.35
-44098.9
-1976.73
-43704.6
-1973.95
-43310.8
-1971
-42917.7
-1967.89
-42525.2
-1964.63
-42133.3
-1961.23
-41742.2
-1957.69
-41351.9
-1954.02
-40962.3
-1950.22
-40573.5
-1946.29
-40185.4
-1942.26
-39798.3
-1938.11
-39411.9
-1933.86
-39026.5
-1929.51
-38641.9
-1925.06
-38258.2
-1920.52
-37875.5
-1915.9
-37493.7
-1911.2
-37112.9
-1906.42
-36733
-1901.57
-36354.1
-1896.65
-35976.3
-1891.67
-35599.4
-1886.63
-35223.5
-1881.53
-34848.7
-1876.39
-34474.9
-1871.2
-34102.2
-1865.96
-33730.5
-1860.69
-33359.8
-1855.38
-32990.3
-1850.04
-32621.8
-1844.67
-32254.4
-1839.27
-31888.1
-1833.86
-31522.8
-1828.42
-31158.7
-1822.97
-30795.6
-1817.5
-30433.7
-1812.03
-30072.8
-1806.54
-29713
-1801.06
-29354.4
-1795.57
-28996.8
-1790.08
-28640.3
-1784.6
-28285
-1779.13
-27930.7
-1773.66
-27577.5
-1768.2
-27225.4
-1762.76
-26874.3
-1757.33
-26524.4
-1751.92
-26175.5
-1746.53
-25827.7
-1741.17
-25481
-1735.83
-25135.4
-1730.51
-24790.8
-1725.22
-24447.2
-1719.96
-24104.7
-1714.73
-23763.2
-1709.54
-23422.8
-1704.38
-23083.4
-1699.26
-22745
-1694.18
-22407.6
-1689.13
-22071.2
-1684.13
-21735.8
-1679.17
-21401.4
-1674.26
-21068
-1669.39
-20735.5
-1664.56
-20404
-1659.79
-20073.4
-1655.06
-19743.8
-1650.39
-19415
-1645.77
-19087.2
-1641.2
-18760.3
-1636.69
-18434.3
-1632.23
-18109.2
-1627.82
-17784.9
-1623.48
-17461.5
-1619.19
-17139
-1614.96
-16817.3
-1610.79
-16496.4
-1606.69
-16176.3
-1602.64
-15857
-1598.66
-15538.5
-1594.74
-15220.7
-1590.89
-14903.7
-1587.1
-14587.5
-1583.37
-14272
-1579.72
-13957.2
-1576.13
-13643.1
-1572.61
-13329.7
-1569.15
-13017
-1565.77
-12704.9
-1562.45
-12393.5
-1559.21
-12082.8
-1556.03
-11772.6
-1552.93
-11463.1
-1549.9
-11154.1
-1546.94
-10845.7
-1544.06
-10537.9
-1541.24
-10230.7
-1538.5
-9923.93
-1535.84
-9617.72
-1533.25
-9312.01
-1530.73
-9006.79
-1528.29
-8702.04
-1525.93
-8397.75
-1523.64
-8093.9
-1521.42
-7790.48
-1519.29
-7487.47
-1517.23
-7184.86
-1515.24
-6882.63
-1513.34
-6580.77
-1511.51
-6279.25
-1509.76
-5978.07
-1508.09
-5677.21
-1506.49
-5376.66
-1504.98
-5076.39
-1503.54
-4776.39
-1502.19
-4476.65
-1500.91
-4177.14
-1499.71
-3877.86
-1498.59
-3578.79
-1497.56
-3279.91
-1496.6
-2981.2
-1495.73
-2682.65
-1494.94
-2384.24
-1494.24
-2085.96
-1493.62
-1787.78
-1493.08
-1489.7
-1492.64
-1191.68
-1492.27
-893.72
-1492
-595.798
-1491.81
-297.896
-1491.7
-1491.67
-2108.95
13062.2
-4204.06
12950.6
-6272.86
12726.9
-8304.03
12410.5
-10288
12026.1
-12217.7
11600
-14088.3
11156.7
-15897.5
10716.8
-17644.7
10295.6
-19331.4
9902.85
-20960.1
9543.76
-22534.2
9219.81
-24057.5
8929.85
-25534
8671.09
-26967.8
8439.85
-28362.5
8232.12
-29721.6
8043.93
-31048
7871.61
-32344.3
7711.88
-33612.6
7561.92
-34854.8
7419.4
-36072
7282.42
-37265.6
7149.47
-38436.2
7019.41
-39584.6
6891.39
-40711.2
6764.79
-41816.3
6639.19
-42900.3
6514.3
-43963.2
6389.95
-45005.4
6266.02
-46026.8
6142.46
-47027.5
6019.24
-48007.8
5896.35
-48967.5
5773.81
-49906.9
5651.63
-50826
5529.84
-51724.9
5408.44
-52603.6
5287.48
-53462.3
5166.97
-54300.9
5046.94
-55119.6
4927.4
-55918.6
4808.39
-56697.8
4689.92
-57457.4
4572.02
-58197.4
4454.7
-58918
4337.99
-59619.3
4221.91
-60301.4
4106.48
-60964.3
3991.72
-61608.3
3877.64
-62233.4
3764.29
-62839.7
3651.66
-63427.4
3539.78
-63996.6
3428.68
-64547.5
3318.36
-65080.1
3208.86
-65594.6
3100.19
-66091.2
2992.37
-66570
2885.42
-67031.1
2779.35
-67474.7
2674.19
-67900.9
2569.96
-68309.9
2466.67
-68701.9
2364.34
-69077.1
2262.98
-69435.5
2162.62
-69777.4
2063.27
-70102.9
1964.94
-70412.2
1867.66
-70705.5
1771.43
-70982.9
1676.27
-71244.7
1582.2
-71491
1489.22