/*--------------------------------*- C++ -*----------------------------------*\
| =========                 |                                                 |
| \\      /  F ield         | OpenFOAM: The Open Source CFD Toolbox           |
|  \\    /   O peration     | Version:  2212                                  |
|   \\  /    A nd           | Website:  www.openfoam.com                      |
|    \\/     M anipulation  |                                                 |
\*---------------------------------------------------------------------------*/
FoamFile
{
    version     2.0;
    format      ascii;
    arch        "LSB;label=32;scalar=64";
    class       volScalarField;
    location    "680";
    object      p_rgh_0;
}
// * * * * * * * * * * * * * * * * * * * * * * * * * * * * * * * * * * * * * //

dimensions      [1 -1 -2 0 0 0 0];

internalField   nonuniform List<scalar> 
204800
(
47.473
47.4699
47.4624
47.4516
47.4364
47.4172
47.3936
47.3658
47.3339
47.2981
47.2585
47.2152
47.1683
47.1181
47.0645
47.0076
46.9475
46.8843
46.8179
46.7486
46.6762
46.6008
46.5226
46.4416
46.3578
46.2712
46.182
46.0902
45.9959
45.8991
45.7998
45.6982
45.5943
45.4882
45.3799
45.2696
45.1572
45.0428
44.9265
44.8084
44.6886
44.5671
44.4439
44.3192
44.193
44.0654
43.9365
43.8063
43.6748
43.5423
43.4087
43.2741
43.1386
43.0022
42.865
42.7272
42.5886
42.4495
42.3099
42.1699
42.0294
41.8887
41.7477
41.6065
41.4652
41.3238
41.1824
41.0411
40.9
40.759
40.6182
40.4778
40.3377
40.198
40.0588
39.9201
39.782
39.6445
39.5077
39.3716
39.2363
39.1018
38.9682
38.8355
38.7037
38.573
38.4432
38.3146
38.1871
38.0607
37.9355
37.8115
37.6888
37.5674
37.4473
37.3286
37.2112
37.0953
36.9807
36.8677
36.7561
36.646
36.5374
36.4304
36.325
36.2211
36.1189
36.0182
35.9192
35.8218
35.7261
35.6321
35.5397
35.449
35.36
35.2727
35.1871
35.1032
35.021
34.9405
34.8618
34.7847
34.7094
34.6358
34.5639
34.4938
34.4253
34.3586
34.2935
34.2302
34.1685
34.1085
34.0502
33.9936
33.9386
33.8852
33.8335
33.7834
33.735
33.6881
33.6428
33.5991
33.557
33.5164
33.4773
33.4398
33.4037
33.3692
33.3361
33.3044
33.2742
33.2455
33.2181
33.1921
33.1675
33.1442
33.1222
33.1016
33.0823
33.0642
33.0474
33.0318
33.0174
33.0042
32.9922
32.9814
32.9716
32.963
32.9555
32.9491
32.9437
32.9394
32.936
32.9337
32.9323
32.9319
32.9324
32.9338
32.9361
32.9393
32.9433
32.9482
32.9539
32.9603
32.9676
32.9756
32.9843
32.9937
33.0038
33.0146
33.0261
33.0382
33.0509
33.0642
33.0781
33.0925
33.1075
33.123
33.139
33.1555
33.1725
33.1899
33.2078
33.2261
33.2448
33.2639
33.2834
33.3032
33.3233
33.3438
33.3646
33.3857
33.407
33.4286
33.4505
33.4726
33.4949
33.5174
33.5401
33.563
33.586
33.6092
33.6326
33.656
33.6796
33.7033
33.727
33.7508
33.7747
33.7987
33.8226
33.8466
33.8706
33.8947
33.9187
33.9427
33.9666
33.9905
34.0144
34.0382
34.062
34.0857
34.1093
34.1328
34.1562
34.1794
34.2026
34.2256
34.2485
34.2712
34.2938
34.3162
34.3385
34.3605
34.3824
34.4041
34.4256
34.4469
34.468
34.4888
34.5095
34.5299
34.55
34.5699
34.5896
34.609
34.6281
34.647
34.6656
34.684
34.702
34.7198
34.7372
34.7544
34.7713
34.7878
34.8041
34.82
34.8357
34.851
34.8659
34.8806
34.8949
34.9089
34.9225
34.9358
34.9488
34.9614
34.9736
34.9855
34.997
35.0082
35.019
35.0295
35.0396
35.0493
35.0586
35.0676
35.0762
35.0844
35.0922
35.0997
35.1067
35.1134
35.1197
35.1256
35.1311
35.1363
35.141
35.1454
35.1493
35.1529
35.1561
35.1588
35.1612
35.1632
35.1648
35.166
35.1668
35.1672
47.4044
47.3995
47.3895
47.3753
47.3567
47.3343
47.308
47.2782
47.2447
47.2078
47.1674
47.1237
47.0766
47.0261
46.9725
46.9156
46.8555
46.7923
46.726
46.6567
46.5844
46.5092
46.4311
46.3502
46.2665
46.1801
46.091
45.9994
45.9052
45.8085
45.7094
45.608
45.5043
45.3983
45.2902
45.1801
45.0678
44.9537
44.8376
44.7197
44.6001
44.4788
44.3558
44.2313
44.1053
43.978
43.8493
43.7193
43.5881
43.4558
43.3224
43.188
43.0528
42.9166
42.7797
42.6421
42.5038
42.3649
42.2256
42.0858
41.9456
41.8051
41.6643
41.5234
41.3823
41.2412
41.1001
40.959
40.8181
40.6774
40.5369
40.3967
40.2569
40.1174
39.9785
39.84
39.7022
39.5649
39.4284
39.2926
39.1575
39.0232
38.8899
38.7574
38.6259
38.4954
38.3659
38.2375
38.1102
37.984
37.8591
37.7353
37.6129
37.4917
37.3718
37.2533
37.1361
37.0204
36.9061
36.7932
36.6819
36.572
36.4636
36.3568
36.2516
36.1479
36.0459
35.9454
35.8466
35.7494
35.6538
35.56
35.4678
35.3772
35.2884
35.2013
35.1158
35.0321
34.9501
34.8698
34.7912
34.7143
34.6391
34.5657
34.4939
34.4239
34.3556
34.289
34.2241
34.1608
34.0993
34.0394
33.9812
33.9247
33.8698
33.8166
33.765
33.715
33.6667
33.6199
33.5747
33.5311
33.489
33.4485
33.4095
33.3721
33.3361
33.3016
33.2686
33.2371
33.2069
33.1782
33.1509
33.125
33.1004
33.0772
33.0553
33.0347
33.0154
32.9974
32.9806
32.9651
32.9507
32.9376
32.9256
32.9148
32.9051
32.8965
32.889
32.8826
32.8773
32.8729
32.8696
32.8673
32.8659
32.8655
32.866
32.8675
32.8698
32.873
32.877
32.8819
32.8875
32.894
32.9012
32.9092
32.9179
32.9274
32.9375
32.9483
32.9597
32.9718
32.9845
32.9977
33.0116
33.026
33.041
33.0565
33.0725
33.089
33.1059
33.1233
33.1412
33.1595
33.1781
33.1972
33.2166
33.2364
33.2565
33.277
33.2977
33.3188
33.3401
33.3617
33.3835
33.4056
33.4278
33.4503
33.473
33.4958
33.5189
33.542
33.5653
33.5887
33.6123
33.6359
33.6596
33.6834
33.7072
33.7311
33.7551
33.779
33.803
33.827
33.8509
33.8749
33.8988
33.9227
33.9465
33.9703
33.994
34.0177
34.0412
34.0647
34.088
34.1113
34.1344
34.1574
34.1802
34.2029
34.2254
34.2478
34.27
34.2921
34.3139
34.3356
34.357
34.3783
34.3993
34.4201
34.4407
34.4611
34.4812
34.5011
34.5207
34.5401
34.5592
34.578
34.5966
34.6149
34.6329
34.6507
34.6681
34.6852
34.7021
34.7186
34.7348
34.7508
34.7664
34.7816
34.7966
34.8112
34.8255
34.8394
34.8531
34.8663
34.8793
34.8918
34.9041
34.9159
34.9275
34.9386
34.9494
34.9598
34.9699
34.9796
34.9889
34.9979
35.0064
35.0146
35.0225
35.0299
35.0369
35.0436
35.0499
35.0558
35.0613
35.0664
35.0712
35.0755
35.0795
35.083
35.0862
35.089
35.0913
35.0933
35.0949
35.0961
35.0969
35.0973
47.3879
47.3832
47.3733
47.3592
47.3407
47.3183
47.2921
47.2622
47.2287
47.1918
47.1513
47.1075
47.0603
47.0098
46.9561
46.8991
46.839
46.7758
46.7094
46.6401
46.5677
46.4925
46.4143
46.3334
46.2496
46.1632
46.0741
45.9824
45.8882
45.7915
45.6924
45.5909
45.4872
45.3812
45.2731
45.1629
45.0506
44.9364
44.8204
44.7024
44.5828
44.4614
44.3385
44.214
44.088
43.9606
43.8319
43.7019
43.5707
43.4383
43.305
43.1706
43.0353
42.8991
42.7622
42.6246
42.4863
42.3474
42.2081
42.0682
41.928
41.7875
41.6468
41.5058
41.3648
41.2237
41.0825
40.9415
40.8006
40.6598
40.5193
40.3792
40.2393
40.0999
39.961
39.8225
39.6847
39.5475
39.4109
39.2751
39.14
39.0058
38.8724
38.74
38.6085
38.4779
38.3485
38.2201
38.0928
37.9667
37.8417
37.718
37.5956
37.4744
37.3545
37.236
37.1189
37.0032
36.8889
36.7761
36.6647
36.5549
36.4465
36.3398
36.2345
36.1309
36.0288
35.9284
35.8296
35.7325
35.6369
35.5431
35.4509
35.3604
35.2716
35.1845
35.0991
35.0154
34.9334
34.8531
34.7746
34.6977
34.6226
34.5492
34.4774
34.4074
34.3392
34.2726
34.2077
34.1445
34.083
34.0231
33.965
33.9085
33.8536
33.8004
33.7489
33.6989
33.6506
33.6039
33.5587
33.5151
33.4731
33.4326
33.3937
33.3562
33.3203
33.2858
33.2529
33.2213
33.1912
33.1626
33.1353
33.1094
33.0848
33.0616
33.0398
33.0192
32.9999
32.9819
32.9652
32.9497
32.9354
32.9223
32.9103
32.8995
32.8899
32.8813
32.8739
32.8675
32.8621
32.8578
32.8545
32.8522
32.8509
32.8505
32.8511
32.8525
32.8548
32.8581
32.8621
32.867
32.8727
32.8792
32.8864
32.8944
32.9032
32.9126
32.9227
32.9336
32.945
32.9571
32.9698
32.9831
32.997
33.0114
33.0264
33.0419
33.058
33.0745
33.0914
33.1089
33.1267
33.145
33.1637
33.1828
33.2022
33.222
33.2422
33.2626
33.2834
33.3044
33.3258
33.3474
33.3692
33.3913
33.4136
33.4361
33.4588
33.4816
33.5046
33.5278
33.5511
33.5746
33.5981
33.6217
33.6454
33.6692
33.6931
33.717
33.7409
33.7649
33.7889
33.8129
33.8369
33.8608
33.8847
33.9086
33.9325
33.9563
33.98
34.0036
34.0272
34.0507
34.074
34.0973
34.1204
34.1434
34.1662
34.1889
34.2115
34.2339
34.2561
34.2781
34.3
34.3216
34.3431
34.3643
34.3854
34.4062
34.4268
34.4472
34.4673
34.4872
34.5068
34.5262
34.5453
34.5641
34.5827
34.601
34.619
34.6368
34.6542
34.6714
34.6882
34.7047
34.721
34.7369
34.7525
34.7678
34.7827
34.7973
34.8116
34.8256
34.8392
34.8525
34.8654
34.878
34.8902
34.9021
34.9136
34.9248
34.9356
34.946
34.9561
34.9658
34.9751
34.984
34.9926
35.0008
35.0086
35.0161
35.0231
35.0298
35.0361
35.042
35.0475
35.0526
35.0573
35.0617
35.0656
35.0692
35.0724
35.0751
35.0775
35.0795
35.0811
35.0823
35.0831
35.0835
47.3232
47.3179
47.3071
47.2917
47.2717
47.2479
47.2203
47.1892
47.1547
47.117
47.0759
47.0316
46.984
46.9332
46.8793
46.8221
46.7619
46.6986
46.6322
46.5628
46.4904
46.4152
46.337
46.2561
46.1724
46.086
45.9969
45.9053
45.8111
45.7145
45.6155
45.5141
45.4104
45.3046
45.1965
45.0864
44.9743
44.8602
44.7442
44.6264
44.5068
44.3856
44.2628
44.1384
44.0125
43.8852
43.7566
43.6268
43.4957
43.3635
43.2302
43.096
42.9609
42.8248
42.6881
42.5506
42.4124
42.2737
42.1345
41.9948
41.8548
41.7144
41.5738
41.433
41.2921
41.1512
41.0102
40.8693
40.7286
40.588
40.4477
40.3077
40.168
40.0287
39.89
39.7517
39.614
39.477
39.3406
39.2049
39.07
38.936
38.8028
38.6705
38.5391
38.4088
38.2795
38.1513
38.0242
37.8982
37.7734
37.6499
37.5276
37.4066
37.2869
37.1685
37.0516
36.936
36.8219
36.7092
36.598
36.4883
36.3802
36.2735
36.1685
36.065
35.9631
35.8628
35.7642
35.6671
35.5718
35.4781
35.386
35.2957
35.207
35.1201
35.0348
34.9512
34.8694
34.7892
34.7108
34.6341
34.5591
34.4858
34.4142
34.3443
34.2761
34.2097
34.1449
34.0818
34.0204
33.9607
33.9027
33.8463
33.7915
33.7384
33.687
33.6371
33.5889
33.5423
33.4972
33.4537
33.4118
33.3714
33.3325
33.2952
33.2593
33.225
33.1921
33.1606
33.1306
33.102
33.0748
33.049
33.0245
33.0014
32.9796
32.9591
32.9399
32.9219
32.9052
32.8898
32.8755
32.8625
32.8506
32.8398
32.8302
32.8217
32.8143
32.808
32.8027
32.7984
32.7952
32.7929
32.7916
32.7912
32.7918
32.7933
32.7957
32.7989
32.803
32.8079
32.8136
32.8201
32.8274
32.8354
32.8442
32.8537
32.8638
32.8746
32.8861
32.8982
32.9109
32.9243
32.9381
32.9526
32.9676
32.9831
32.9991
33.0156
33.0326
33.0501
33.0679
33.0862
33.1049
33.124
33.1434
33.1632
33.1833
33.2038
33.2246
33.2456
33.2669
33.2885
33.3104
33.3324
33.3547
33.3772
33.3999
33.4227
33.4457
33.4689
33.4922
33.5156
33.5391
33.5627
33.5865
33.6102
33.6341
33.658
33.6819
33.7058
33.7298
33.7538
33.7777
33.8017
33.8256
33.8495
33.8733
33.8971
33.9208
33.9444
33.9679
33.9914
34.0147
34.0379
34.061
34.084
34.1068
34.1295
34.152
34.1744
34.1966
34.2186
34.2405
34.2621
34.2835
34.3048
34.3258
34.3466
34.3672
34.3875
34.4076
34.4275
34.4471
34.4665
34.4856
34.5044
34.5229
34.5412
34.5592
34.5769
34.5944
34.6115
34.6283
34.6448
34.6611
34.677
34.6925
34.7078
34.7227
34.7374
34.7516
34.7656
34.7792
34.7924
34.8053
34.8179
34.8301
34.842
34.8535
34.8646
34.8754
34.8858
34.8959
34.9056
34.9149
34.9238
34.9324
34.9406
34.9484
34.9558
34.9629
34.9695
34.9758
34.9817
34.9872
34.9923
34.9971
35.0014
35.0054
35.0089
35.0121
35.0149
35.0172
35.0192
35.0208
35.022
35.0228
35.0232
47.2963
47.2911
47.2805
47.2653
47.2456
47.222
47.1945
47.1635
47.129
47.0912
47.0501
47.0056
46.958
46.9071
46.853
46.7958
46.7354
46.6719
46.6054
46.536
46.4635
46.3881
46.3099
46.2289
46.1451
46.0586
45.9695
45.8778
45.7836
45.6869
45.5877
45.4863
45.3826
45.2766
45.1685
45.0583
44.9461
44.832
44.716
44.5981
44.4785
44.3572
44.2343
44.1099
43.984
43.8566
43.728
43.5981
43.467
43.3347
43.2014
43.0672
42.932
42.7959
42.6591
42.5216
42.3834
42.2447
42.1054
41.9657
41.8256
41.6853
41.5446
41.4038
41.2629
41.1219
40.981
40.8401
40.6993
40.5587
40.4183
40.2783
40.1386
39.9994
39.8606
39.7223
39.5846
39.4476
39.3112
39.1755
39.0406
38.9066
38.7734
38.6411
38.5098
38.3794
38.2501
38.1219
37.9948
37.8689
37.7441
37.6206
37.4983
37.3773
37.2576
37.1393
37.0224
36.9069
36.7927
36.6801
36.5689
36.4593
36.3511
36.2445
36.1395
36.0361
35.9342
35.834
35.7354
35.6384
35.543
35.4494
35.3574
35.2671
35.1785
35.0915
35.0063
34.9228
34.841
34.7609
34.6825
34.6058
34.5309
34.4576
34.3861
34.3163
34.2482
34.1817
34.117
34.054
33.9927
33.933
33.875
33.8187
33.764
33.7109
33.6595
33.6097
33.5616
33.515
33.47
33.4265
33.3847
33.3443
33.3055
33.2682
33.2324
33.1981
33.1653
33.1339
33.1039
33.0754
33.0482
33.0225
32.998
32.975
32.9532
32.9328
32.9136
32.8958
32.8791
32.8637
32.8495
32.8365
32.8247
32.814
32.8044
32.796
32.7886
32.7823
32.7771
32.7729
32.7697
32.7674
32.7662
32.7659
32.7665
32.7681
32.7705
32.7738
32.7779
32.7828
32.7886
32.7952
32.8025
32.8106
32.8194
32.8289
32.839
32.8499
32.8614
32.8736
32.8863
32.8997
32.9136
32.9281
32.9431
32.9587
32.9748
32.9913
33.0083
33.0258
33.0437
33.062
33.0807
33.0998
33.1193
33.1391
33.1593
33.1798
33.2006
33.2217
33.243
33.2646
33.2865
33.3086
33.3309
33.3534
33.3761
33.399
33.422
33.4452
33.4685
33.492
33.5155
33.5392
33.5629
33.5867
33.6106
33.6345
33.6584
33.6824
33.7064
33.7304
33.7543
33.7783
33.8022
33.8261
33.85
33.8738
33.8975
33.9211
33.9447
33.9681
33.9915
34.0147
34.0378
34.0608
34.0837
34.1064
34.1289
34.1513
34.1735
34.1955
34.2174
34.239
34.2605
34.2817
34.3028
34.3236
34.3442
34.3645
34.3846
34.4045
34.4241
34.4435
34.4626
34.4814
34.5
34.5183
34.5363
34.554
34.5715
34.5886
34.6054
34.622
34.6382
34.6541
34.6697
34.6849
34.6999
34.7145
34.7288
34.7427
34.7563
34.7696
34.7825
34.7951
34.8073
34.8192
34.8307
34.8418
34.8526
34.863
34.8731
34.8828
34.8921
34.901
34.9096
34.9178
34.9256
34.933
34.9401
34.9468
34.9531
34.9589
34.9645
34.9696
34.9743
34.9786
34.9826
34.9862
34.9893
34.9921
34.9945
34.9964
34.998
34.9992
35
35.0004
47.2361
47.2307
47.2198
47.2042
47.1839
47.1597
47.1315
47.0999
47.0649
47.0265
46.9849
46.9401
46.892
46.8408
46.7865
46.729
46.6685
46.6049
46.5382
46.4686
46.3961
46.3206
46.2424
46.1613
46.0774
45.9909
45.9018
45.81
45.7158
45.619
45.5199
45.4185
45.3147
45.2088
45.1007
44.9905
44.8783
44.7642
44.6482
44.5304
44.4108
44.2895
44.1667
44.0422
43.9164
43.7891
43.6605
43.5306
43.3995
43.2674
43.1341
42.9999
42.8647
42.7288
42.592
42.4545
42.3164
42.1777
42.0385
41.8989
41.7589
41.6186
41.4781
41.3373
41.1965
41.0556
40.9147
40.7739
40.6332
40.4927
40.3524
40.2125
40.0729
39.9337
39.795
39.6569
39.5193
39.3823
39.246
39.1105
38.9757
38.8417
38.7086
38.5764
38.4452
38.315
38.1858
38.0577
37.9307
37.8049
37.6802
37.5568
37.4346
37.3138
37.1942
37.076
36.9592
36.8438
36.7298
36.6173
36.5062
36.3967
36.2886
36.1822
36.0773
35.9739
35.8722
35.7721
35.6736
35.5767
35.4815
35.388
35.2961
35.2059
35.1174
35.0306
34.9455
34.8621
34.7804
34.7004
34.6221
34.5456
34.4707
34.3976
34.3262
34.2565
34.1885
34.1222
34.0576
33.9947
33.9334
33.8739
33.816
33.7598
33.7052
33.6523
33.601
33.5513
33.5032
33.4567
33.4118
33.3685
33.3267
33.2865
33.2478
33.2106
33.1749
33.1407
33.1079
33.0766
33.0467
33.0183
32.9912
32.9655
32.9412
32.9182
32.8965
32.8762
32.8571
32.8393
32.8227
32.8074
32.7933
32.7804
32.7686
32.758
32.7485
32.7401
32.7328
32.7266
32.7214
32.7173
32.7141
32.712
32.7108
32.7105
32.7112
32.7128
32.7153
32.7186
32.7228
32.7278
32.7336
32.7402
32.7476
32.7557
32.7646
32.7741
32.7843
32.7953
32.8068
32.819
32.8318
32.8452
32.8592
32.8737
32.8887
32.9043
32.9204
32.937
32.954
32.9715
32.9895
33.0078
33.0266
33.0457
33.0652
33.085
33.1052
33.1257
33.1465
33.1676
33.189
33.2107
33.2325
33.2546
33.277
33.2995
33.3222
33.3451
33.3681
33.3913
33.4147
33.4381
33.4617
33.4853
33.5091
33.5329
33.5568
33.5807
33.6046
33.6286
33.6526
33.6766
33.7006
33.7245
33.7485
33.7724
33.7962
33.82
33.8437
33.8674
33.8909
33.9144
33.9377
33.961
33.9841
34.0071
34.0299
34.0526
34.0751
34.0975
34.1197
34.1417
34.1636
34.1852
34.2067
34.2279
34.2489
34.2698
34.2903
34.3107
34.3308
34.3507
34.3703
34.3897
34.4088
34.4276
34.4461
34.4644
34.4824
34.5002
34.5176
34.5347
34.5515
34.5681
34.5843
34.6002
34.6158
34.631
34.646
34.6606
34.6748
34.6888
34.7024
34.7156
34.7286
34.7411
34.7533
34.7652
34.7767
34.7878
34.7986
34.8091
34.8191
34.8288
34.8381
34.847
34.8556
34.8638
34.8716
34.879
34.8861
34.8927
34.899
34.9049
34.9104
34.9155
34.9203
34.9246
34.9286
34.9321
34.9353
34.938
34.9404
34.9424
34.944
34.9452
34.946
34.9464
47.2025
47.1973
47.1866
47.1712
47.1512
47.1272
47.0993
47.0678
47.0328
46.9944
46.9527
46.9078
46.8596
46.8083
46.7538
46.6962
46.6355
46.5717
46.5049
46.4352
46.3625
46.2869
46.2085
46.1272
46.0433
45.9566
45.8673
45.7755
45.6811
45.5843
45.485
45.3835
45.2796
45.1736
45.0654
44.9551
44.8428
44.7286
44.6125
44.4945
44.3749
44.2535
44.1306
44.0061
43.8801
43.7527
43.624
43.4941
43.3629
43.2307
43.0973
42.963
42.8278
42.6918
42.5549
42.4174
42.2792
42.1405
42.0012
41.8615
41.7214
41.5811
41.4405
41.2997
41.1588
41.0178
40.8769
40.736
40.5953
40.4547
40.3145
40.1745
40.0348
39.8956
39.7569
39.6187
39.4811
39.3441
39.2078
39.0722
38.9374
38.8034
38.6703
38.5382
38.4069
38.2767
38.1475
38.0194
37.8924
37.7666
37.6419
37.5185
37.3964
37.2755
37.156
37.0378
36.921
36.8056
36.6916
36.5791
36.4681
36.3586
36.2506
36.1442
36.0393
35.936
35.8343
35.7342
35.6357
35.5389
35.4438
35.3503
35.2585
35.1683
35.0799
34.9931
34.9081
34.8247
34.7431
34.6632
34.5849
34.5084
34.4337
34.3606
34.2893
34.2196
34.1517
34.0854
34.0209
33.9581
33.8969
33.8374
33.7796
33.7235
33.669
33.6161
33.5649
33.5152
33.4672
33.4208
33.376
33.3328
33.2911
33.2509
33.2123
33.1752
33.1396
33.1054
33.0727
33.0415
33.0117
32.9833
32.9564
32.9307
32.9065
32.8836
32.862
32.8417
32.8227
32.805
32.7885
32.7733
32.7592
32.7464
32.7347
32.7242
32.7147
32.7064
32.6992
32.6931
32.688
32.6839
32.6808
32.6787
32.6776
32.6775
32.6782
32.6799
32.6824
32.6858
32.6901
32.6952
32.701
32.7077
32.7151
32.7233
32.7322
32.7418
32.7521
32.7631
32.7747
32.787
32.7998
32.8133
32.8273
32.8419
32.857
32.8727
32.8888
32.9054
32.9225
32.9401
32.9581
32.9765
32.9953
33.0145
33.034
33.0539
33.0741
33.0947
33.1156
33.1367
33.1581
33.1798
33.2017
33.2239
33.2463
33.2688
33.2916
33.3145
33.3376
33.3608
33.3842
33.4077
33.4313
33.455
33.4788
33.5026
33.5265
33.5505
33.5744
33.5984
33.6225
33.6465
33.6705
33.6945
33.7185
33.7424
33.7663
33.7901
33.8138
33.8375
33.8611
33.8846
33.9079
33.9312
33.9544
33.9774
34.0002
34.0229
34.0455
34.0679
34.0901
34.1122
34.134
34.1557
34.1772
34.1984
34.2195
34.2403
34.2609
34.2813
34.3014
34.3213
34.3409
34.3603
34.3794
34.3983
34.4168
34.4351
34.4532
34.4709
34.4883
34.5055
34.5223
34.5388
34.5551
34.571
34.5866
34.6019
34.6168
34.6314
34.6457
34.6597
34.6733
34.6865
34.6995
34.712
34.7243
34.7361
34.7476
34.7588
34.7696
34.78
34.7901
34.7997
34.8091
34.818
34.8266
34.8348
34.8426
34.85
34.8571
34.8637
34.87
34.8759
34.8814
34.8866
34.8913
34.8956
34.8996
34.9031
34.9063
34.9091
34.9114
34.9134
34.915
34.9162
34.917
34.9174
47.1463
47.141
47.1303
47.1149
47.0947
47.0705
47.0423
47.0105
46.9752
46.9365
46.8944
46.8492
46.8007
46.7491
46.6943
46.6365
46.5756
46.5116
46.4446
46.3747
46.3019
46.2261
46.1476
46.0662
45.9821
45.8954
45.806
45.714
45.6196
45.5226
45.4233
45.3217
45.2178
45.1116
45.0034
44.893
44.7807
44.6664
44.5502
44.4322
44.3125
44.1911
44.0681
43.9435
43.8175
43.6901
43.5614
43.4314
43.3002
43.1679
43.0346
42.9002
42.765
42.6289
42.4921
42.3545
42.2163
42.0776
41.9383
41.7986
41.6585
41.5182
41.3776
41.2368
41.0959
40.9549
40.814
40.6732
40.5324
40.3919
40.2516
40.1117
39.9721
39.8329
39.6942
39.556
39.4185
39.2815
39.1452
39.0097
38.875
38.741
38.608
38.4758
38.3447
38.2145
38.0854
37.9573
37.8304
37.7046
37.58
37.4567
37.3346
37.2138
37.0943
36.9762
36.8595
36.7442
36.6303
36.5179
36.407
36.2975
36.1896
36.0833
35.9785
35.8753
35.7737
35.6737
35.5753
35.4786
35.3836
35.2902
35.1984
35.1084
35.02
34.9334
34.8484
34.7652
34.6837
34.6039
34.5258
34.4494
34.3747
34.3017
34.2305
34.161
34.0931
34.027
33.9626
33.8999
33.8388
33.7794
33.7217
33.6657
33.6113
33.5585
33.5074
33.4579
33.41
33.3637
33.319
33.2759
33.2343
33.1942
33.1557
33.1187
33.0832
33.0492
33.0166
32.9855
32.9558
32.9275
32.9006
32.8751
32.851
32.8282
32.8067
32.7865
32.7676
32.75
32.7336
32.7185
32.7045
32.6918
32.6802
32.6697
32.6604
32.6522
32.6451
32.639
32.634
32.63
32.627
32.625
32.624
32.6239
32.6247
32.6265
32.6291
32.6326
32.6369
32.6421
32.648
32.6548
32.6623
32.6705
32.6795
32.6892
32.6995
32.7106
32.7223
32.7346
32.7475
32.761
32.7751
32.7897
32.8049
32.8206
32.8368
32.8535
32.8707
32.8883
32.9063
32.9248
32.9436
32.9628
32.9824
33.0024
33.0227
33.0433
33.0642
33.0854
33.1068
33.1286
33.1505
33.1727
33.1951
33.2177
33.2405
33.2635
33.2866
33.3099
33.3333
33.3568
33.3804
33.4041
33.4279
33.4518
33.4757
33.4997
33.5237
33.5478
33.5718
33.5959
33.6199
33.6439
33.6679
33.6919
33.7158
33.7396
33.7634
33.787
33.8106
33.8341
33.8575
33.8808
33.904
33.927
33.9499
33.9726
33.9952
34.0176
34.0398
34.0619
34.0838
34.1054
34.1269
34.1482
34.1693
34.1901
34.2107
34.2311
34.2512
34.2711
34.2908
34.3101
34.3293
34.3481
34.3667
34.385
34.403
34.4208
34.4382
34.4554
34.4722
34.4887
34.505
34.5209
34.5365
34.5518
34.5667
34.5813
34.5956
34.6096
34.6232
34.6365
34.6494
34.662
34.6742
34.6861
34.6976
34.7087
34.7195
34.7299
34.74
34.7497
34.759
34.768
34.7765
34.7847
34.7925
34.8
34.807
34.8137
34.82
34.8259
34.8314
34.8365
34.8412
34.8456
34.8495
34.8531
34.8563
34.859
34.8614
34.8634
34.865
34.8662
34.8669
34.8673
47.1087
47.1036
47.0931
47.0778
47.0579
47.034
47.0059
46.9742
46.9389
46.9002
46.8581
46.8128
46.7642
46.7124
46.6575
46.5995
46.5384
46.4742
46.4071
46.3369
46.2639
46.188
46.1092
46.0277
45.9435
45.8565
45.767
45.6749
45.5802
45.4831
45.3837
45.2819
45.1778
45.0715
44.9631
44.8526
44.7401
44.6256
44.5093
44.3912
44.2713
44.1498
44.0266
43.902
43.7758
43.6483
43.5194
43.3893
43.258
43.1255
42.9921
42.8576
42.7223
42.5861
42.4491
42.3114
42.1731
42.0342
41.8949
41.7551
41.6149
41.4744
41.3337
41.1929
41.0519
40.9109
40.7698
40.6289
40.4881
40.3475
40.2072
40.0671
39.9275
39.7882
39.6495
39.5112
39.3736
39.2366
39.1003
38.9647
38.8299
38.6959
38.5628
38.4307
38.2995
38.1693
38.0401
37.912
37.7851
37.6593
37.5347
37.4114
37.2893
37.1685
37.049
36.9309
36.8142
36.6989
36.585
36.4726
36.3617
36.2523
36.1445
36.0381
35.9334
35.8302
35.7286
35.6287
35.5304
35.4337
35.3387
35.2453
35.1537
35.0637
34.9754
34.8888
34.8039
34.7207
34.6393
34.5595
34.4815
34.4052
34.3306
34.2577
34.1865
34.1171
34.0493
33.9833
33.9189
33.8563
33.7953
33.736
33.6784
33.6225
33.5682
33.5155
33.4645
33.4151
33.3673
33.3211
33.2764
33.2334
33.1919
33.152
33.1135
33.0766
33.0412
33.0073
32.9748
32.9438
32.9142
32.886
32.8593
32.8339
32.8098
32.7871
32.7657
32.7457
32.7269
32.7093
32.6931
32.678
32.6642
32.6515
32.64
32.6297
32.6204
32.6123
32.6053
32.5993
32.5944
32.5905
32.5876
32.5857
32.5848
32.5848
32.5857
32.5876
32.5903
32.5939
32.5983
32.6035
32.6096
32.6164
32.624
32.6324
32.6414
32.6512
32.6616
32.6728
32.6845
32.6969
32.7099
32.7235
32.7377
32.7524
32.7677
32.7835
32.7997
32.8165
32.8337
32.8514
32.8695
32.888
32.907
32.9263
32.9459
32.9659
32.9863
33.007
33.0279
33.0492
33.0707
33.0925
33.1145
33.1368
33.1593
33.1819
33.2048
33.2278
33.251
33.2743
33.2978
33.3213
33.345
33.3688
33.3926
33.4166
33.4405
33.4646
33.4886
33.5127
33.5368
33.5609
33.585
33.609
33.6331
33.6571
33.681
33.7049
33.7287
33.7524
33.776
33.7996
33.823
33.8463
33.8695
33.8926
33.9155
33.9383
33.9609
33.9833
34.0056
34.0277
34.0496
34.0713
34.0928
34.1141
34.1352
34.156
34.1767
34.1971
34.2172
34.2372
34.2568
34.2762
34.2954
34.3143
34.3329
34.3512
34.3692
34.387
34.4044
34.4216
34.4385
34.455
34.4713
34.4872
34.5028
34.5181
34.5331
34.5477
34.562
34.576
34.5896
34.6029
34.6158
34.6284
34.6407
34.6526
34.6641
34.6752
34.686
34.6965
34.7066
34.7163
34.7256
34.7345
34.7431
34.7513
34.7591
34.7666
34.7736
34.7803
34.7866
34.7925
34.798
34.8031
34.8079
34.8122
34.8162
34.8197
34.8229
34.8257
34.8281
34.83
34.8316
34.8328
34.8336
34.834
47.0559
47.0508
47.0403
47.0251
47.0052
46.9812
46.9531
46.9212
46.8858
46.8468
46.8045
46.7589
46.7101
46.6581
46.6029
46.5446
46.4833
46.4189
46.3515
46.2812
46.208
46.1319
46.0529
45.9712
45.8868
45.7997
45.71
45.6177
45.5229
45.4257
45.326
45.2241
45.1199
45.0134
44.9049
44.7943
44.6816
44.567
44.4506
44.3323
44.2123
44.0907
43.9674
43.8426
43.7164
43.5887
43.4597
43.3295
43.1981
43.0656
42.932
42.7974
42.662
42.5257
42.3886
42.2509
42.1125
41.9735
41.8341
41.6942
41.554
41.4134
41.2727
41.1317
40.9907
40.8496
40.7085
40.5676
40.4267
40.2861
40.1457
40.0056
39.8659
39.7267
39.5879
39.4496
39.312
39.1749
39.0386
38.903
38.7682
38.6342
38.5012
38.369
38.2378
38.1076
37.9785
37.8504
37.7235
37.5977
37.4732
37.3498
37.2278
37.107
36.9876
36.8695
36.7529
36.6376
36.5238
36.4114
36.3006
36.1912
36.0834
35.9772
35.8725
35.7694
35.6679
35.568
35.4698
35.3732
35.2782
35.185
35.0934
35.0035
34.9153
34.8288
34.744
34.6609
34.5795
34.4999
34.4219
34.3457
34.2712
34.1985
34.1274
34.0581
33.9904
33.9245
33.8603
33.7977
33.7369
33.6777
33.6202
33.5643
33.5102
33.4576
33.4067
33.3574
33.3097
33.2637
33.2192
33.1762
33.1349
33.095
33.0567
33.02
32.9847
32.9509
32.9185
32.8876
32.8581
32.8301
32.8034
32.7782
32.7542
32.7316
32.7104
32.6904
32.6718
32.6544
32.6382
32.6233
32.6095
32.597
32.5856
32.5754
32.5663
32.5583
32.5513
32.5455
32.5407
32.5369
32.5341
32.5323
32.5315
32.5316
32.5327
32.5346
32.5374
32.5411
32.5456
32.551
32.5571
32.564
32.5717
32.5802
32.5893
32.5992
32.6097
32.6209
32.6328
32.6453
32.6584
32.6721
32.6863
32.7011
32.7165
32.7323
32.7487
32.7655
32.7828
32.8006
32.8188
32.8374
32.8564
32.8758
32.8955
32.9156
32.936
32.9567
32.9778
32.9991
33.0207
33.0425
33.0646
33.0869
33.1095
33.1322
33.1551
33.1782
33.2014
33.2248
33.2483
33.2719
33.2957
33.3195
33.3434
33.3674
33.3914
33.4155
33.4396
33.4637
33.4878
33.512
33.5361
33.5602
33.5843
33.6083
33.6323
33.6562
33.68
33.7038
33.7275
33.751
33.7745
33.7978
33.8211
33.8442
33.8671
33.8899
33.9125
33.935
33.9573
33.9794
34.0014
34.0231
34.0446
34.0659
34.087
34.1079
34.1286
34.149
34.1692
34.1891
34.2088
34.2282
34.2474
34.2663
34.2849
34.3033
34.3213
34.3391
34.3566
34.3738
34.3906
34.4072
34.4235
34.4394
34.4551
34.4704
34.4853
34.5
34.5143
34.5283
34.5419
34.5552
34.5682
34.5808
34.593
34.6049
34.6164
34.6276
34.6384
34.6489
34.6589
34.6686
34.678
34.6869
34.6955
34.7037
34.7116
34.719
34.7261
34.7327
34.739
34.7449
34.7505
34.7556
34.7603
34.7647
34.7686
34.7722
34.7754
34.7781
34.7805
34.7825
34.7841
34.7853
34.7861
34.7865
47.016
47.011
47.0007
46.9857
46.966
46.9421
46.9141
46.8824
46.8469
46.808
46.7656
46.7199
46.6709
46.6188
46.5634
46.5049
46.4434
46.3788
46.3112
46.2407
46.1672
46.0909
46.0117
45.9298
45.8452
45.7579
45.6679
45.5754
45.4804
45.383
45.2831
45.181
45.0765
44.9699
44.8612
44.7503
44.6375
44.5227
44.4061
44.2876
44.1674
44.0456
43.9221
43.7971
43.6707
43.5429
43.4137
43.2833
43.1517
43.019
42.8852
42.7505
42.6149
42.4784
42.3412
42.2033
42.0648
41.9257
41.7861
41.646
41.5057
41.365
41.2241
41.083
40.9418
40.8006
40.6594
40.5183
40.3773
40.2366
40.0961
39.9559
39.8161
39.6767
39.5379
39.3995
39.2618
39.1247
38.9883
38.8526
38.7177
38.5837
38.4505
38.3183
38.187
38.0568
37.9276
37.7995
37.6726
37.5468
37.4222
37.2988
37.1767
37.056
36.9365
36.8185
36.7018
36.5865
36.4727
36.3604
36.2495
36.1402
36.0324
35.9261
35.8215
35.7184
35.6169
35.5171
35.4189
35.3224
35.2275
35.1342
35.0427
34.9529
34.8647
34.7783
34.6936
34.6105
34.5292
34.4497
34.3718
34.2957
34.2213
34.1486
34.0776
34.0083
33.9408
33.8749
33.8108
33.7484
33.6876
33.6285
33.5711
33.5154
33.4613
33.4089
33.3581
33.3089
33.2613
33.2154
33.171
33.1282
33.0869
33.0472
33.009
32.9724
32.9372
32.9035
32.8713
32.8405
32.8111
32.7832
32.7567
32.7315
32.7077
32.6853
32.6641
32.6443
32.6258
32.6085
32.5924
32.5776
32.564
32.5516
32.5403
32.5302
32.5212
32.5134
32.5066
32.5008
32.4962
32.4925
32.4898
32.4882
32.4875
32.4877
32.4889
32.4909
32.4938
32.4976
32.5023
32.5077
32.514
32.521
32.5289
32.5374
32.5467
32.5566
32.5673
32.5786
32.5906
32.6032
32.6164
32.6302
32.6445
32.6594
32.6749
32.6908
32.7073
32.7242
32.7416
32.7595
32.7778
32.7965
32.8155
32.835
32.8548
32.875
32.8955
32.9163
32.9375
32.9589
32.9805
33.0025
33.0246
33.047
33.0696
33.0924
33.1154
33.1386
33.1619
33.1853
33.2089
33.2326
33.2564
33.2803
33.3043
33.3283
33.3524
33.3766
33.4007
33.4249
33.4491
33.4733
33.4975
33.5217
33.5458
33.5699
33.5939
33.6179
33.6418
33.6656
33.6893
33.7129
33.7364
33.7598
33.7831
33.8062
33.8292
33.8521
33.8747
33.8973
33.9196
33.9418
33.9637
33.9855
34.0071
34.0284
34.0496
34.0705
34.0912
34.1116
34.1319
34.1518
34.1716
34.191
34.2102
34.2291
34.2478
34.2662
34.2842
34.302
34.3195
34.3368
34.3537
34.3703
34.3865
34.4025
34.4182
34.4335
34.4485
34.4632
34.4775
34.4915
34.5051
34.5185
34.5314
34.544
34.5563
34.5682
34.5798
34.5909
34.6018
34.6122
34.6223
34.632
34.6414
34.6503
34.6589
34.6672
34.675
34.6825
34.6895
34.6962
34.7025
34.7084
34.714
34.7191
34.7238
34.7282
34.7322
34.7357
34.7389
34.7417
34.744
34.746
34.7476
34.7488
34.7496
34.75
46.966
46.9609
46.9507
46.9357
46.9161
46.8923
46.8643
46.8325
46.7969
46.7578
46.7152
46.6694
46.6202
46.5677
46.5122
46.4535
46.3917
46.3268
46.259
46.1882
46.1145
46.038
45.9586
45.8764
45.7915
45.704
45.6138
45.5211
45.4259
45.3283
45.2282
45.1258
45.0212
44.9144
44.8054
44.6944
44.5814
44.4664
44.3495
44.2309
44.1105
43.9885
43.8648
43.7397
43.613
43.485
43.3557
43.2251
43.0933
42.9605
42.8265
42.6917
42.5559
42.4193
42.2819
42.1438
42.0051
41.8659
41.7261
41.586
41.4455
41.3046
41.1636
41.0224
40.8811
40.7398
40.5985
40.4573
40.3162
40.1753
40.0347
39.8945
39.7546
39.6151
39.4762
39.3378
39.1999
39.0628
38.9263
38.7906
38.6556
38.5216
38.3884
38.2561
38.1248
37.9945
37.8653
37.7372
37.6102
37.4844
37.3598
37.2364
37.1144
36.9936
36.8742
36.7561
36.6394
36.5242
36.4104
36.2981
36.1873
36.078
35.9702
35.864
35.7594
35.6564
35.555
35.4552
35.357
35.2605
35.1657
35.0726
34.9811
34.8914
34.8033
34.7169
34.6323
34.5494
34.4681
34.3887
34.3109
34.2349
34.1606
34.088
34.0171
33.9479
33.8805
33.8148
33.7508
33.6884
33.6278
33.5688
33.5116
33.456
33.402
33.3497
33.299
33.25
33.2025
33.1567
33.1124
33.0698
33.0286
32.9891
32.951
32.9145
32.8795
32.8459
32.8138
32.7832
32.754
32.7262
32.6998
32.6748
32.6511
32.6288
32.6078
32.5881
32.5697
32.5525
32.5366
32.522
32.5085
32.4962
32.4851
32.4751
32.4663
32.4585
32.4519
32.4463
32.4417