/*--------------------------------*- C++ -*----------------------------------*\
| =========                 |                                                 |
| \\      /  F ield         | OpenFOAM: The Open Source CFD Toolbox           |
|  \\    /   O peration     | Version:  2212                                  |
|   \\  /    A nd           | Website:  www.openfoam.com                      |
|    \\/     M anipulation  |                                                 |
\*---------------------------------------------------------------------------*/
FoamFile
{
    version     2.0;
    format      ascii;
    arch        "LSB;label=32;scalar=64";
    class       volScalarField;
    location    "140";
    object      p_rgh;
}
// * * * * * * * * * * * * * * * * * * * * * * * * * * * * * * * * * * * * * //

dimensions      [1 -1 -2 0 0 0 0];

internalField   nonuniform List<scalar> 
204800
(
-9.16591
-9.16109
-9.15102
-9.13607
-9.11601
-9.09102
-9.06099
-9.02602
-8.98608
-8.94123
-8.89148
-8.83689
-8.7775
-8.71336
-8.64452
-8.57103
-8.49293
-8.41027
-8.3231
-8.23145
-8.13538
-8.03494
-7.93017
-7.82111
-7.70781
-7.59031
-7.46864
-7.34285
-7.21298
-7.07905
-6.9411
-6.79916
-6.65328
-6.50346
-6.34976
-6.1922
-6.03081
-5.86563
-5.69669
-5.52402
-5.34768
-5.16768
-4.98409
-4.79693
-4.60626
-4.41213
-4.21457
-4.01366
-3.80943
-3.60195
-3.39127
-3.17745
-2.96057
-2.74067
-2.51783
-2.29212
-2.06361
-1.83236
-1.59846
-1.36198
-1.12299
-0.88158
-0.637821
-0.391797
-0.143588
0.106721
0.359049
0.613311
0.869423
1.1273
1.38686
1.64801
1.91066
2.17475
2.44016
2.70684
2.97467
3.24359
3.51351
3.78434
4.05601
4.32842
4.6015
4.87517
5.14934
5.42394
5.69889
5.97412
6.24954
6.52509
6.80069
7.07628
7.35177
7.6271
7.90222
8.17704
8.4515
8.72555
8.99913
9.27216
9.5446
9.8164
10.0875
10.3578
10.6273
10.896
11.1637
11.4306
11.6964
11.9611
12.2248
12.4874
12.7488
13.0089
13.2679
13.5256
13.782
14.0371
14.2907
14.5431
14.7939
15.0434
15.2913
15.5378
15.7828
16.0262
16.2681
16.5084
16.7471
16.9842
17.2197
17.4535
17.6857
17.9162
18.1451
18.3723
18.5977
18.8215
19.0436
19.2639
19.4825
19.6994
19.9146
20.128
20.3397
20.5496
20.7578
20.9643
21.169
21.3719
21.5731
21.7726
21.9703
22.1662
22.3605
22.5529
22.7437
22.9327
23.12
23.3055
23.4894
23.6715
23.8519
24.0306
24.2076
24.3828
24.5565
24.7284
24.8986
25.0672
25.2341
25.3994
25.563
25.7249
25.8853
26.044
26.2011
26.3565
26.5104
26.6627
26.8134
26.9625
27.1101
27.2561
27.4005
27.5434
27.6848
27.8246
27.9629
28.0997
28.235
28.3689
28.5012
28.6321
28.7615
28.8894
29.016
29.141
29.2647
29.3869
29.5077
29.6271
29.7452
29.8618
29.9771
30.091
30.2035
30.3147
30.4246
30.5331
30.6403
30.7462
30.8508
30.9541
31.0561
31.1568
31.2563
31.3545
31.4514
31.5471
31.6415
31.7348
31.8268
31.9175
32.0071
32.0955
32.1827
32.2687
32.3535
32.4372
32.5197
32.6011
32.6813
32.7604
32.8383
32.9151
32.9908
33.0654
33.1389
33.2113
33.2826
33.3528
33.422
33.49
33.5571
33.623
33.6879
33.7518
33.8147
33.8765
33.9373
33.997
34.0558
34.1135
34.1703
34.226
34.2808
34.3346
34.3874
34.4393
34.4901
34.5401
34.589
34.637
34.6841
34.7302
34.7754
34.8197
34.863
34.9055
34.947
34.9876
35.0273
35.0661
35.104
35.141
35.1771
35.2123
35.2467
35.2802
35.3128
35.3445
35.3754
35.4054
35.4346
35.4629
35.4904
35.517
35.5428
35.5677
35.5918
35.6151
35.6375
35.6591
35.6799
35.6999
35.719
35.7373
35.7549
35.7716
35.7875
35.8025
35.8168
35.8303
35.843
35.8548
35.8659
35.8762
35.8857
35.8944
35.9023
35.9094
35.9157
35.9212
35.9259
35.9299
35.933
35.9354
35.937
35.9377
-9.11364
-9.1089
-9.09922
-9.0848
-9.06548
-9.04141
-9.01249
-8.97881
-8.94032
-8.89709
-8.84909
-8.79636
-8.73892
-8.67679
-8.60999
-8.53855
-8.46249
-8.38184
-8.29663
-8.2069
-8.11267
-8.01397
-7.91085
-7.80334
-7.69147
-7.57528
-7.45481
-7.3301
-7.2012
-7.06813
-6.93095
-6.7897
-6.64441
-6.49513
-6.34189
-6.18475
-6.02374
-5.8589
-5.69028
-5.51791
-5.34185
-5.16213
-4.97881
-4.79192
-4.60152
-4.40766
-4.21038
-4.00975
-3.80581
-3.59862
-3.38825
-3.17474
-2.95817
-2.7386
-2.51609
-2.29071
-2.06254
-1.83165
-1.5981
-1.36198
-1.12337
-0.88233
-0.638952
-0.393315
-0.1455
0.104412
0.356336
0.610189
0.865887
1.12334
1.38248
1.6432
1.90543
2.16907
2.43405
2.70028
2.96767
3.23614
3.5056
3.77597
4.04718
4.31913
4.59174
4.86493
5.13864
5.41276
5.68724
5.96199
6.23693
6.512
6.78712
7.06221
7.33722
7.61207
7.88669
8.16102
8.435
8.70856
8.98164
9.25419
9.52614
9.79744
10.068
10.3379
10.6069
10.8751
11.1423
11.4087
11.674
11.9382
12.2014
12.4635
12.7244
12.9841
13.2426
13.4998
13.7557
14.0103
14.2635
14.5154
14.7658
15.0147
15.2622
15.5083
15.7528
15.9957
16.2371
16.477
16.7152
16.9519
17.1869
17.4203
17.652
17.8821
18.1105
18.3373
18.5623
18.7856
19.0073
19.2272
19.4454
19.6619
19.8766
20.0896
20.3009
20.5104
20.7182
20.9242
21.1285
21.3311
21.5319
21.731
21.9283
22.1238
22.3177
22.5098
22.7001
22.8888
23.0757
23.2609
23.4443
23.6261
23.8061
23.9845
24.1611
24.336
24.5093
24.6809
24.8508
25.019
25.1856
25.3505
25.5138
25.6755
25.8355
25.9939
26.1506
26.3058
26.4594
26.6113
26.7617
26.9105
27.0578
27.2035
27.3476
27.4903
27.6313
27.7709
27.9089
28.0455
28.1805
28.3141
28.4461
28.5768
28.7059
28.8336
28.9598
29.0847
29.2081
29.33
29.4506
29.5698
29.6876
29.804
29.919
30.0327
30.145
30.256
30.3656
30.4739
30.5809
30.6866
30.791
30.894
30.9958
31.0964
31.1956
31.2936
31.3903
31.4858
31.5801
31.6731
31.7649
31.8555
31.9449
32.0331
32.1202
32.206
32.2907
32.3741
32.4565
32.5377
32.6177
32.6966
32.7744
32.8511
32.9266
33.0011
33.0744
33.1466
33.2178
33.2879
33.3569
33.4248
33.4917
33.5576
33.6223
33.6861
33.7488
33.8105
33.8711
33.9308
33.9894
34.0471
34.1037
34.1593
34.214
34.2677
34.3204
34.3721
34.4229
34.4727
34.5216
34.5695
34.6165
34.6625
34.7076
34.7518
34.795
34.8374
34.8788
34.9193
34.9589
34.9976
35.0355
35.0724
35.1084
35.1436
35.1779
35.2113
35.2439
35.2755
35.3063
35.3363
35.3654
35.3937
35.4211
35.4476
35.4734
35.4982
35.5223
35.5455
35.5679
35.5895
35.6102
35.6301
35.6493
35.6675
35.685
35.7017
35.7176
35.7326
35.7469
35.7603
35.773
35.7848
35.7959
35.8061
35.8156
35.8242
35.8321
35.8392
35.8455
35.851
35.8557
35.8597
35.8628
35.8652
35.8667
35.8675
-9.11848
-9.11376
-9.10413
-9.08978
-9.07057
-9.04661
-9.01783
-8.98431
-8.94601
-8.90296
-8.85517
-8.80267
-8.74546
-8.68356
-8.617
-8.54579
-8.46997
-8.38955
-8.30457
-8.21504
-8.12101
-8.02249
-7.91952
-7.81214
-7.70038
-7.58428
-7.46387
-7.3392
-7.2103
-7.07721
-6.93999
-6.79867
-6.65329
-6.5039
-6.35055
-6.19326
-6.0321
-5.8671
-5.6983
-5.52576
-5.34952
-5.16962
-4.98611
-4.79904
-4.60846
-4.41442
-4.21697
-4.01616
-3.81205
-3.6047
-3.39416
-3.1805
-2.96378
-2.74406
-2.52141
-2.2959
-2.06759
-1.83656
-1.60289
-1.36665
-1.12791
-0.88676
-0.643271
-0.397525
-0.149605
0.100407
0.352429
0.606376
0.862164
1.11971
1.37892
1.63973
1.90203
2.16575
2.4308
2.69709
2.96454
3.23307
3.50259
3.77302
4.04427
4.31626
4.58892
4.86216
5.13589
5.41005
5.68456
5.95933
6.2343
6.50939
6.78453
7.05964
7.33466
7.60951
7.88414
8.15848
8.43246
8.70601
8.97909
9.25163
9.52357
9.79486
10.0654
10.3353
10.6043
10.8724
11.1397
11.4059
11.6712
11.9355
12.1986
12.4607
12.7215
12.9812
13.2397
13.4968
13.7527
14.0072
14.2604
14.5122
14.7625
15.0115
15.2589
15.5049
15.7493
15.9922
16.2336
16.4733
16.7115
16.9481
17.1831
17.4164
17.6481
17.8781
18.1064
18.3331
18.5581
18.7814
19.0029
19.2228
19.4409
19.6573
19.872
20.0849
20.2961
20.5055
20.7133
20.9192
21.1234
21.3259
21.5267
21.7256
21.9229
22.1184
22.3121
22.5042
22.6945
22.883
23.0698
23.255
23.4383
23.62
23.8
23.9782
24.1548
24.3297
24.5029
24.6744
24.8442
25.0124
25.1789
25.3437
25.5069
25.6685
25.8284
25.9868
26.1435
26.2986
26.4521
26.604
26.7543
26.903
27.0502
27.1958
27.3399
27.4825
27.6235
27.763
27.9009
28.0374
28.1724
28.3059
28.4379
28.5684
28.6975
28.8251
28.9513
29.0761
29.1994
29.3213
29.4419
29.561
29.6787
29.795
29.91
30.0236
30.1359
30.2468
30.3564
30.4646
30.5716
30.6772
30.7815
30.8846
30.9863
31.0868
31.186
31.2839
31.3806
31.476
31.5702
31.6632
31.755
31.8456
31.9349
32.0231
32.11
32.1958
32.2804
32.3639
32.4462
32.5273
32.6073
32.6862
32.7639
32.8405
32.9161
32.9905
33.0638
33.136
33.2071
33.2771
33.3461
33.414
33.4808
33.5466
33.6114
33.6751
33.7378
33.7994
33.8601
33.9197
33.9783
34.0359
34.0925
34.1481
34.2027
34.2564
34.3091
34.3608
34.4115
34.4613
34.5101
34.558
34.605
34.651
34.6961
34.7402
34.7834
34.8258
34.8672
34.9077
34.9473
34.9859
35.0237
35.0607
35.0967
35.1318
35.1661
35.1995
35.232
35.2637
35.2945
35.3244
35.3535
35.3818
35.4091
35.4357
35.4614
35.4863
35.5103
35.5335
35.5559
35.5775
35.5982
35.6181
35.6372
35.6555
35.6729
35.6896
35.7055
35.7205
35.7347
35.7482
35.7608
35.7727
35.7837
35.794
35.8034
35.8121
35.82
35.827
35.8333
35.8388
35.8436
35.8475
35.8506
35.853
35.8546
35.8554
-9.08805
-9.08343
-9.0741
-9.06017
-9.04155
-9.01831
-8.9904
-8.95787
-8.92069
-8.87888
-8.83243
-8.78135
-8.72564
-8.66529
-8.60032
-8.53072
-8.45652
-8.37771
-8.2943
-8.20633
-8.11379
-8.0167
-7.9151
-7.809
-7.69843
-7.58342
-7.46401
-7.34024
-7.21214
-7.07976
-6.94314
-6.80234
-6.65739
-6.50835
-6.35528
-6.19822
-6.03722
-5.87233
-5.70362
-5.53113
-5.35491
-5.17501
-4.9915
-4.80441
-4.61381
-4.41975
-4.22228
-4.02146
-3.81735
-3.60999
-3.39946
-3.18582
-2.96912
-2.74943
-2.52682
-2.30135
-2.07311
-1.84215
-1.60855
-1.37239
-1.13374
-0.892691
-0.649309
-0.403679
-0.155882
0.0939997
0.345883
0.599685
0.85532
1.11271
1.37175
1.63238
1.89451
2.15804
2.42289
2.68899
2.95623
3.22455
3.49385
3.76405
4.03508
4.30684
4.57925
4.85224
5.12573
5.39963
5.67388
5.94838
6.22308
6.49789
6.77275
7.04758
7.32231
7.59687
7.8712
8.14524
8.41891
8.69216
8.96493
9.23715
9.50877
9.77974
10.05
10.3195
10.5882
10.856
11.1229
11.3888
11.6538
11.9177
12.1805
12.4422
12.7027
12.9621
13.2201
13.477
13.7325
13.9867
14.2395
14.4909
14.7409
14.9895
15.2366
15.4822
15.7263
15.9688
16.2098
16.4492
16.6871
16.9233
17.1579
17.3909
17.6222
17.8519
18.0799
18.3062
18.5308
18.7537
18.9749
19.1944
19.4122
19.6283
19.8426
20.0552
20.266
20.4751
20.6825
20.8881
21.092
21.2942
21.4946
21.6932
21.8901
22.0853
22.2787
22.4704
22.6604
22.8486
23.0352
23.2199
23.403
23.5844
23.764
23.942
24.1182
24.2928
24.4657
24.6369
24.8064
24.9743
25.1405
25.3051
25.468
25.6293
25.7889
25.947
26.1034
26.2582
26.4114
26.5631
26.7131
26.8616
27.0085
27.1539
27.2977
27.44
27.5807
27.72
27.8577
27.9939
28.1287
28.2619
28.3937
28.524
28.6528
28.7802
28.9062
29.0307
29.1538
29.2755
29.3958
29.5147
29.6322
29.7483
29.8631
29.9765
30.0886
30.1993
30.3086
30.4167
30.5234
30.6289
30.733
30.8358
30.9374
31.0377
31.1367
31.2344
31.3309
31.4262
31.5202
31.613
31.7046
31.795
31.8842
31.9722
32.059
32.1446
32.2291
32.3124
32.3945
32.4755
32.5554
32.6341
32.7117
32.7881
32.8635
32.9378
33.0109
33.083
33.154
33.2239
33.2927
33.3605
33.4272
33.4929
33.5575
33.6211
33.6837
33.7452
33.8057
33.8652
33.9237
33.9812
34.0377
34.0932
34.1477
34.2013
34.2539
34.3055
34.3561
34.4058
34.4546
34.5024
34.5492
34.5952
34.6401
34.6842
34.7274
34.7696
34.8109
34.8513
34.8909
34.9295
34.9672
35.004
35.04
35.0751
35.1093
35.1426
35.1751
35.2067
35.2374
35.2673
35.2963
35.3245
35.3519
35.3784
35.404
35.4289
35.4528
35.476
35.4983
35.5199
35.5406
35.5604
35.5795
35.5977
35.6152
35.6318
35.6476
35.6626
35.6769
35.6903
35.7029
35.7147
35.7257
35.736
35.7454
35.7541
35.7619
35.769
35.7753
35.7808
35.7855
35.7894
35.7925
35.7949
35.7964
35.7972
-9.09368
-9.08909
-9.07986
-9.06605
-9.0476
-9.02457
-8.99691
-8.96466
-8.9278
-8.88635
-8.84028
-8.78962
-8.73434
-8.67446
-8.60998
-8.5409
-8.46722
-8.38894
-8.30609
-8.21865
-8.12665
-8.0301
-7.92901
-7.8234
-7.71329
-7.59871
-7.47968
-7.35625
-7.22844
-7.0963
-6.95987
-6.81919
-6.67432
-6.52529
-6.37218
-6.21503
-6.05389
-5.88883
-5.71989
-5.54715
-5.37065
-5.19045
-5.00661
-4.81919
-4.62825
-4.43384
-4.23602
-4.03484
-3.83038
-3.62268
-3.41181
-3.19783
-2.9808
-2.76079
-2.53786
-2.31209
-2.08354
-1.85229
-1.61841
-1.38197
-1.14305
-0.901733
-0.658093
-0.412213
-0.164172
0.0859463
0.33806
0.592084
0.847936
1.10553
1.36478
1.62561
1.88792
2.15163
2.41667
2.68293
2.95034
3.21881
3.48826
3.75861
4.02977
4.30166
4.5742
4.84731
5.12091
5.39492
5.66926
5.94386
6.21864
6.49354
6.76847
7.04336
7.31816
7.59278
7.86716
8.14124
8.41495
8.68824
8.96103
9.23328
9.50492
9.7759
10.0462
10.3157
10.5843
10.8522
11.119
11.385
11.6499
11.9138
12.1766
12.4382
12.6987
12.958
13.2161
13.4728
13.7283
13.9824
14.2352
14.4865
14.7365
14.985
15.232
15.4775
15.7215
15.964
16.2049
16.4442
16.682
16.9181
17.1526
17.3855
17.6167
17.8463
18.0742
18.3004
18.5249
18.7477
18.9688
19.1882
19.4059
19.6218
19.8361
20.0485
20.2593
20.4683
20.6755
20.881
21.0848
21.2868
21.4871
21.6856
21.8824
22.0775
22.2708
22.4624
22.6522
22.8403
23.0267
23.2114
23.3943
23.5756
23.7551
23.9329
24.1091
24.2835
24.4563
24.6274
24.7968
24.9645
25.1306
25.295
25.4578
25.619
25.7785
25.9364
26.0927
26.2474
26.4005
26.5521
26.702
26.8504
26.9972
27.1424
27.2861
27.4283
27.5689
27.7081
27.8457
27.9818
28.1164
28.2495
28.3812
28.5114
28.6401
28.7674
28.8933
29.0177
29.1407
29.2623
29.3825
29.5013
29.6187
29.7347
29.8494
29.9627
30.0746
30.1852
30.2945
30.4025
30.5091
30.6144
30.7185
30.8212
30.9227
31.0229
31.1218
31.2195
31.3159
31.4111
31.505
31.5978
31.6893
31.7796
31.8687
31.9566
32.0433
32.1288
32.2132
32.2964
32.3785
32.4594
32.5392
32.6179
32.6954
32.7718
32.8471
32.9213
32.9944
33.0664
33.1373
33.2071
33.2759
33.3436
33.4103
33.4759
33.5405
33.604
33.6665
33.728
33.7884
33.8479
33.9063
33.9637
34.0202
34.0756
34.1301
34.1836
34.2361
34.2877
34.3383
34.3879
34.4366
34.4844
34.5312
34.5771
34.622
34.6661
34.7092
34.7514
34.7927
34.833
34.8725
34.9111
34.9488
34.9856
35.0215
35.0566
35.0907
35.124
35.1565
35.188
35.2188
35.2486
35.2776
35.3058
35.3331
35.3596
35.3852
35.41
35.434
35.4571
35.4794
35.5009
35.5216
35.5415
35.5605
35.5787
35.5961
35.6128
35.6286
35.6436
35.6578
35.6712
35.6838
35.6956
35.7066
35.7168
35.7263
35.7349
35.7427
35.7498
35.7561
35.7616
35.7663
35.7702
35.7733
35.7757
35.7772
35.778
-9.07443
-9.06995
-9.06096
-9.04751
-9.02955
-9.00713
-8.98019
-8.94877
-8.91285
-8.87242
-8.82748
-8.77802
-8.72402
-8.66549
-8.60239
-8.53474
-8.46253
-8.38574
-8.30437
-8.21842
-8.12788
-8.03277
-7.93308
-7.82882
-7.72001
-7.60665
-7.48878
-7.36641
-7.23957
-7.10831
-6.97265
-6.83265
-6.68835
-6.5398
-6.38707
-6.2302
-6.06926
-5.90431
-5.73542
-5.56266
-5.38608
-5.20576
-5.02175
-4.83414
-4.64297
-4.44832
-4.25025
-4.04881
-3.84409
-3.63613
-3.425
-3.21077
-2.9935
-2.77325
-2.5501
-2.32411
-2.09536
-1.86391
-1.62985
-1.39324
-1.15416
-0.912685
-0.668903
-0.42289
-0.174726
0.0755048
0.327721
0.581839
0.837775
1.09544
1.35476
1.61564
1.878
2.14175
2.40681
2.67309
2.94051
3.20899
3.47843
3.74876
4.0199
4.29175
4.56425
4.83731
5.11085
5.38479
5.65906
5.93358
6.20828
6.48307
6.7579
7.03268
7.30736
7.58185
7.8561
8.13004
8.40361
8.67674
8.94938
9.22146
9.49293
9.76373
10.0338
10.3031
10.5716
10.8392
11.1059
11.3716
11.6363
11.9
12.1626
12.424
12.6842
12.9433
13.2011
13.4576
13.7128
13.9667
14.2192
14.4703
14.72
14.9682
15.215
15.4602
15.704
15.9462
16.1868
16.4259
16.6633
16.8992
17.1334
17.366
17.597
17.8262
18.0539
18.2798
18.504
18.7265
18.9473
19.1664
19.3838
19.5995
19.8134
20.0256
20.236
20.4447
20.6517
20.8569
21.0604
21.2621
21.4621
21.6603
21.8568
22.0516
22.2446
22.4359
22.6254
22.8133
22.9994
23.1838
23.3664
23.5474
23.7266
23.9042
24.08
24.2542
24.4267
24.5975
24.7666
24.9341
25.0999
25.2641
25.4266
25.5875
25.7468
25.9045
26.0605
26.2149
26.3678
26.5191
26.6687
26.8169
26.9634
27.1084
27.2519
27.3938
27.5342
27.6731
27.8105
27.9463
28.0807
28.2136
28.3451
28.475
28.6035
28.7306
28.8562
28.9804
29.1032
29.2246
29.3446
29.4632
29.5804
29.6962
29.8106
29.9238
30.0355
30.1459
30.255
30.3628
30.4692
30.5744
30.6782
30.7808
30.8821
30.9821
31.0808
31.1783
31.2745
31.3696
31.4633
31.5559
31.6472
31.7374
31.8263
31.9141
32.0006
32.086
32.1702
32.2533
32.3352
32.416
32.4956
32.5741
32.6515
32.7278
32.8029
32.877
32.9499
33.0218
33.0926
33.1623
33.231
33.2986
33.3651
33.4306
33.495
33.5584
33.6208
33.6822
33.7425
33.8019
33.8602
33.9175
33.9739
34.0292
34.0836
34.137
34.1894
34.2409
34.2914
34.341
34.3896
34.4372
34.484
34.5297
34.5746
34.6186
34.6616
34.7037
34.7449
34.7852
34.8246
34.8631
34.9008
34.9375
34.9733
35.0083
35.0424
35.0757
35.108
35.1396
35.1702
35.2
35.229
35.2571
35.2843
35.3108
35.3363
35.3611
35.385
35.4081
35.4304
35.4519
35.4725
35.4923
35.5113
35.5295
35.5469
35.5635
35.5793
35.5942
35.6084
35.6218
35.6344
35.6462
35.6571
35.6673
35.6768
35.6854
35.6932
35.7003
35.7065
35.712
35.7167
35.7206
35.7238
35.7261
35.7277
35.7284
-9.07747
-9.07304
-9.06416
-9.05087
-9.03313
-9.01097
-8.98436
-8.95331
-8.91781
-8.87785
-8.83343
-8.78453
-8.73115
-8.67327
-8.61088
-8.54397
-8.47253
-8.39656
-8.31603
-8.23095
-8.14131
-8.0471
-7.94832
-7.84496
-7.73704
-7.62455
-7.50751
-7.38594
-7.25986
-7.12928
-6.99425
-6.8548
-6.71097
-6.56281
-6.41037
-6.25372
-6.0929
-5.92798
-5.75905
-5.58615
-5.40937
-5.22878
-5.04446
-4.85647
-4.66489
-4.4698
-4.27126
-4.06933
-3.86411
-3.65564
-3.444
-3.22925
-3.01147
-2.79072
-2.56708
-2.3406
-2.11137
-1.87945
-1.64492
-1.40786
-1.16833
-0.926432
-0.682228
-0.435803
-0.187238
0.0633854
0.315984
0.570474
0.826772
1.08479
1.34445
1.60567
1.86835
2.13241
2.39778
2.66435
2.93206
3.20081
3.47052
3.7411
4.01248
4.28458
4.5573
4.83058
5.10433
5.37847
5.65293
5.92763
6.20249
6.47745
6.75243
7.02736
7.30217
7.57679
7.85116
8.12521
8.39887
8.6721
8.94482
9.21697
9.48851
9.75937
10.0295
10.2989
10.5674
10.835
11.1017
11.3675
11.6322
11.8959
12.1584
12.4198
12.6801
12.9391
13.1969
13.4534
13.7085
13.9624
14.2148
14.4659
14.7155
14.9637
15.2103
15.4555
15.6992
15.9413
16.1818
16.4208
16.6582
16.8939
17.1281
17.3605
17.5914
17.8205
18.048
18.2738
18.4979
18.7203
18.941
19.16
19.3772
19.5927
19.8065
20.0186
20.2289
20.4374
20.6442
20.8493
21.0526
21.2542
21.4541
21.6521
21.8485
22.0431
22.236
22.4271
22.6165
22.8042
22.9901
23.1744
23.3569
23.5377
23.7168
23.8942
24.0699
24.2439
24.4162
24.5868
24.7558
24.9231
25.0888
25.2528
25.4152
25.5759
25.735
25.8925
26.0484
26.2027
26.3554
26.5065
26.656
26.804
26.9504
27.0953
27.2386
27.3803
27.5206
27.6593
27.7966
27.9323
28.0665
28.1993
28.3306
28.4604
28.5888
28.7157
28.8412
28.9653
29.0879
29.2091
29.329
29.4474
29.5645
29.6802
29.7945
29.9075
30.0191
30.1294
30.2384
30.346
30.4523
30.5573
30.6611
30.7635
30.8647
30.9646
31.0632
31.1606
31.2567
31.3516
31.4453
31.5377
31.6289
31.719
31.8078
31.8954
31.9819
32.0672
32.1513
32.2343
32.3161
32.3968
32.4763
32.5547
32.632
32.7082
32.7832
32.8572
32.9301
33.0018
33.0725
33.1422
33.2107
33.2782
33.3447
33.4101
33.4745
33.5378
33.6001
33.6614
33.7217
33.7809
33.8392
33.8964
33.9527
34.008
34.0623
34.1156
34.168
34.2194
34.2698
34.3193
34.3679
34.4155
34.4622
34.5079
34.5527
34.5966
34.6396
34.6816
34.7228
34.763
34.8024
34.8409
34.8784
34.9151
34.9509
34.9859
35.0199
35.0531
35.0855
35.1169
35.1476
35.1773
35.2062
35.2343
35.2615
35.2879
35.3135
35.3382
35.3621
35.3852
35.4074
35.4288
35.4494
35.4692
35.4882
35.5064
35.5238
35.5403
35.5561
35.571
35.5852
35.5986
35.6111
35.6229
35.6339
35.6441
35.6535
35.6621
35.6699
35.6769
35.6832
35.6887
35.6934
35.6973
35.7004
35.7027
35.7043
35.7051
-9.06278
-9.05844
-9.04979
-9.03681
-9.01949
-8.99784
-8.97185
-8.94152
-8.90682
-8.86777
-8.82433
-8.77649
-8.72425
-8.66758
-8.60646
-8.54088
-8.47082
-8.39627
-8.3172
-8.23361
-8.14547
-8.05277
-7.95549
-7.85364
-7.74719
-7.63616
-7.52053
-7.40031
-7.27552
-7.14617
-7.01228
-6.87388
-6.73101
-6.5837
-6.432
-6.27596
-6.11566
-5.95114
-5.78248
-5.60976
-5.43306
-5.25245
-5.06801
-4.87984
-4.68801
-4.4926
-4.29369
-4.09138
-3.88572
-3.67681
-3.46471
-3.2495
-3.03125
-2.81003
-2.58592
-2.35899
-2.12931
-1.89696
-1.662
-1.42452
-1.1846
-0.942309
-0.697728
-0.450938
-0.20202
0.0489429
0.301869
0.556675
0.813277
1.07159
1.33153
1.59301
1.85595
2.12026
2.38585
2.65265
2.92056
3.18951
3.4594
3.73016
4.00171
4.27395
4.54682
4.82022
5.09409
5.36834
5.64289
5.91768
6.19262
6.46764
6.74267
7.01764
7.29248
7.56713
7.84151
8.11556
8.38922
8.66243
8.93512
9.20725
9.47874
9.74955
10.0196
10.2889
10.5573
10.8249
11.0915
11.3572
11.6218
11.8853
12.1478
12.409
12.6691
12.928
13.1857
13.442
13.697
13.9507
14.2029
14.4538
14.7032
14.9512
15.1977
15.4427
15.6861
15.928
16.1684
16.4071
16.6443
16.8798
17.1137
17.346
17.5766
17.8055
18.0328
18.2583
18.4822
18.7043
18.9248
19.1435
19.3605
19.5757
19.7893
20.001
20.2111
20.4194
20.626
20.8308
21.0338
21.2351
21.4347
21.6325
21.8286
22.023
22.2156
22.4065
22.5956
22.783
22.9687
23.1526
23.3349
23.5154
23.6943
23.8714
24.0468
24.2206
24.3926
24.563
24.7317
24.8988
25.0642
25.228
25.3901
25.5506
25.7094
25.8667
26.0223
26.1764
26.3288
26.4797
26.6289
26.7767
26.9228
27.0674
27.2105
27.352
27.4921
27.6306
27.7676
27.9031
28.0371
28.1696
28.3007
28.4303
28.5584
28.6851
28.8104
28.9343
29.0567
29.1777
29.2973
29.4156
29.5324
29.6479
29.7621
29.8748
29.9863
30.0964
30.2051
30.3126
30.4187
30.5235
30.6271
30.7293
30.8303
30.93
31.0285
31.1257
31.2216
31.3163
31.4098
31.5021
31.5932
31.683
31.7717
31.8592
31.9455
32.0306
32.1146
32.1974
32.2791
32.3596
32.439
32.5172
32.5944
32.6704
32.7453
32.8192
32.8919
32.9635
33.0341
33.1036
33.1721
33.2394
33.3058
33.371
33.4353
33.4985
33.5607
33.6219
33.682
33.7412
33.7993
33.8565
33.9126
33.9678
34.022
34.0753
34.1275
34.1788
34.2292
34.2786
34.327
34.3745
34.4211
34.4668
34.5115
34.5553
34.5982
34.6402
34.6813
34.7214
34.7607
34.7991
34.8366
34.8732
34.909
34.9438
34.9778
35.011
35.0432
35.0747
35.1052
35.1349
35.1638
35.1918
35.219
35.2453
35.2708
35.2955
35.3193
35.3424
35.3646
35.386
35.4065
35.4263
35.4452
35.4634
35.4807
35.4972
35.513
35.5279
35.542
35.5554
35.5679
35.5796
35.5906
35.6008
35.6102
35.6188
35.6266
35.6336
35.6398
35.6453
35.65
35.6539
35.657
35.6593
35.6609
35.6617
-9.06161
-9.05733
-9.04879
-9.03599
-9.01891
-8.99756
-8.97193
-8.942
-8.90778
-8.86925
-8.82639
-8.7792
-8.72765
-8.67174
-8.61143
-8.54672
-8.47759
-8.40401
-8.32596
-8.24344
-8.1564
-8.06485
-7.96875
-7.8681
-7.76287
-7.65306
-7.53865
-7.41965
-7.29605
-7.16785
-7.03508
-6.89773
-6.75584
-6.60943
-6.45854
-6.30322
-6.14352
-5.9795
-5.81122
-5.63876
-5.4622
-5.28162
-5.0971
-4.90875
-4.71664
-4.52087
-4.32154
-4.11873
-3.91253
-3.70303
-3.49031
-3.27446
-3.05556
-2.83368
-2.6089
-2.38131
-2.15097
-1.91796
-1.68237
-1.44426
-1.20371
-0.960808
-0.715629
-0.468253
-0.218763
0.0327605
0.286234
0.541575
0.798698
1.05752
1.31796
1.57992
1.84333
2.1081
2.37414
2.64137
2.9097
3.17905
3.44934
3.72048
3.9924
4.265
4.53821
4.81195
5.08613
5.36069
5.63553
5.9106
6.18581
6.46109
6.73637
7.01157
7.28664
7.56149
7.83607
8.11031
8.38415
8.65752
8.93037
9.20263
9.47426
9.74519
10.0154
10.2848
10.5533
10.8209
11.0876
11.3533
11.618
11.8816
12.144
12.4054
12.6655
12.9244
13.182
13.4383
13.6933
13.947
14.1992
14.45
14.6994
14.9473
15.1938
15.4387
15.6821
15.9239
16.1642
16.4028
16.6399
16.8753
17.1091
17.3413
17.5718
17.8006
18.0277
18.2531
18.4769
18.6989
18.9192
19.1378
19.3546
19.5697
19.7831
19.9947
20.2046
20.4128
20.6192
20.8238
21.0267
21.2279
21.4273
21.6249
21.8208
22.015
22.2074
22.3981
22.5871
22.7743
22.9598
23.1436
23.3257
23.506
23.6847
23.8616
24.0369
24.2104
24.3823
24.5525
24.7211
24.8879
25.0532
25.2167
25.3787
25.539
25.6976
25.8547
26.0102
26.164
26.3163
26.467
26.6161
26.7636
26.9096
27.054
27.1969
27.3383
27.4781
27.6164
27.7533
27.8886
28.0224
28.1548
28.2857
28.4151
28.5431
28.6696
28.7947
28.9184
29.0407
29.1616
29.281
29.3991
29.5158
29.6311
29.7451
29.8577
29.969
30.0789
30.1875
30.2948
30.4008
30.5055
30.6089
30.711
30.8119
30.9114
31.0097
31.1068
31.2026
31.2972
31.3906
31.4827
31.5736
31.6634
31.7519
31.8393
31.9255
32.0105
32.0943
32.177
32.2585
32.3389
32.4182
32.4964
32.5734
32.6493
32.7241
32.7978
32.8705
32.942
33.0125
33.0819
33.1502
33.2175
33.2837
33.3489
33.413
33.4762
33.5383
33.5993
33.6594
33.7185
33.7765
33.8336
33.8897
33.9448
33.9989
34.052
34.1042
34.1554
34.2057
34.255
34.3034
34.3509
34.3974
34.443
34.4876
34.5314
34.5742
34.6161
34.6571
34.6972
34.7365
34.7748
34.8122
34.8488
34.8845
34.9193
34.9533
34.9863
35.0186
35.0499
35.0804
35.1101
35.1389
35.1669
35.194
35.2203
35.2458
35.2704
35.2942
35.3172
35.3394
35.3608
35.3813
35.401
35.4199
35.438
35.4553
35.4719
35.4876
35.5025
35.5166
35.5299
35.5424
35.5541
35.5651
35.5752
35.5846
35.5932
35.601
35.608
35.6142
35.6197
35.6244
35.6283
35.6314
35.6337
35.6353
35.636
-9.0477
-9.04351
-9.03516
-9.02263
-9.00591
-8.98501
-8.95992
-8.93062
-8.8971
-8.85936
-8.81737
-8.77112
-8.72059
-8.66576
-8.60661
-8.54312
-8.47527
-8.40303
-8.32637
-8.24528
-8.15972
-8.06968
-7.97512
-7.87603
-7.77239
-7.66417
-7.55135
-7.43393
-7.31189
-7.18523
-7.05394
-6.91804
-6.77752
-6.63241
-6.48274
-6.32853
-6.16984
-6.00671
-5.83919
-5.66737
-5.49131
-5.31109
-5.12681
-4.93855
-4.74643
-4.55053
-4.35096
-4.14782
-3.94121
-3.73123
-3.51798
-3.30156
-3.08205
-2.85954
-2.63412
-2.40587
-2.17488
-1.94122
-1.70498
-1.46623
-1.22506
-0.981549
-0.735771
-0.48781
-0.237748
0.0143329
0.268349
0.524218
0.781854
1.04117
1.30209
1.56453
1.82839
2.0936
2.36006
2.6277
2.89643
3.16617
3.43683
3.70832
3.98057
4.2535
4.52702
4.80105
5.07552
5.35034
5.62544
5.90075
6.17618
6.45168
6.72715
7.00254
7.27778
7.5528
7.82752
8.1019
8.37585
8.64933
8.92228
9.19463
9.46633
9.73732
10.0076
10.277
10.5455
10.8132
11.0799
11.3456
11.6102
11.8738
12.1362
12.3975
12.6576
12.9164
13.1739
13.4302
13.6851
13.9386
14.1908
14.4415
14.6908
14.9386
15.1849
15.4297
15.6729
15.9146
16.1547
16.3932
16.6301
16.8653
17.0989
17.3309
17.5612
17.7898
18.0167
18.242
18.4655
18.6873
18.9074
19.1257
19.3424
19.5573
19.7704
19.9818
20.1915
20.3994
20.6055
20.81
21.0126
21.2135
21.4127
21.6101
21.8058
21.9997
22.1919
22.3823
22.571
22.758
22.9432
23.1268
23.3086
23.4887
23.6671
23.8438
24.0188
24.1921
24.3637
24.5337
24.7019
24.8686
25.0335
25.1969
25.3585
25.5186
25.677
25.8338
25.989
26.1427
26.2947
26.4451
26.594
26.7413
26.887
27.0312
27.1739
27.315
27.4546
27.5927
27.7293
27.8644
27.998
28.1301
28.2608
28.39
28.5177
28.6441
28.7689
28.8924
29.0145
29.1351
29.2544
29.3722
29.4887
29.6038
29.7176
29.83
29.9411
30.0508
30.1592
30.2663
30.3721
30.4766
30.5798
30.6818
30.7824
30.8818
30.9799
31.0768
31.1724
31.2668
31.36
31.452
31.5428
31.6323
31.7207
31.8079
31.8939
31.9788
32.0624
32.145
32.2264
32.3066
32.3857
32.4637
32.5406
32.6164
32.691
32.7646
32.8371
32.9085
32.9788
33.0481
33.1163
33.1835
33.2496
33.3146
33.3786
33.4416
33.5036
33.5646
33.6245
33.6835
33.7414
33.7984
33.8543
33.9093
33.9633
34.0164
34.0685
34.1196
34.1698
34.219
34.2673
34.3146
34.3611
34.4065
34.4511
34.4948
34.5375
34.5793
34.6203
34.6603
34.6995
34.7377
34.7751
34.8116
34.8472
34.882
34.9158
34.9488
34.981
35.0123
35.0428
35.0724
35.1011
35.129
35.1561
35.1824
35.2078
35.2324
35.2561
35.2791
35.3012
35.3225
35.343
35.3627
35.3816
35.3997
35.4169
35.4334
35.4491
35.464
35.478
35.4913
35.5038
35.5155
35.5264
35.5366
35.5459
35.5545
35.5623
35.5693
35.5755
35.581
35.5856
35.5895
35.5926
35.5949
35.5965
35.5973
-9.04173
-9.0376
-9.02937
-9.01701
-9.00054
-8.97994
-8.9552
-8.92632
-8.89329
-8.85608
-8.81469
-8.7691
-8.71929
-8.66524
-8.60693
-8.54434
-8.47744
-8.40622
-8.33064
-8.25068
-8.16631
-8.0775
-7.98423
-7.88647
-7.7842
-7.67738
-7.566
-7.45004
-7.32947
-7.20427
-7.07445
-6.93999
-6.80089
-6.65715
-6.5088
-6.35584
-6.19831
-6.03624
-5.86968
-5.69869
-5.52333
-5.34368
-5.15982
-4.97185
-4.77986
-4.58396
-4.38425
-4.18086
-3.97388
-3.76344
-3.54964
-3.33259
-3.1124
-2.88916
-2.66298
-2.43395
-2.20216
-1.96769
-1.73064
-1.49109
-1.24912
-1.00481
-0.758256
-0.509529
-0.258716
-0.00589892
0.248839
0.505414
0.763741
1.02374
1.28532
1.54839
1.81289
2.0787
2.34577
2.61399
2.88328
3.15357
3.42476
3.69677
3.96953
4.24294
4.51693
4.79142
5.06632
5.34157
5.61708
5.89278
6.1686
6.44445
6.72028
6.996
7.27156
7.54688
7.82189
8.09654
8.37076
8.64449
8.91766
9.19023
9.46214
9.73332
10.0037
10.2733
10.542
10.8098
11.0767
11.3425
11.6072
11.8709
12.1334
12.3947
12.6549
12.9137
13.1713
13.4276
13.6825
13.9361
14.1882
14.4389
14.6882
14.936
15.1822
15.427
15.6701
15.9118
16.1518
16.3902
16.627
16.8622
17.0957
17.3276
17.5578
17.7863
18.0131
18.2382
18.4616
18.6833
18.9032
19.1214
19.3379
19.5526
19.7656
19.9769
20.1864
20.3941
20.6001
20.8043
21.0068
21.2076
21.4065
21.6038
21.7993
21.993
22.185
22.3752
22.5637
22.7505
22.9356
23.1189
23.3005
23.4804
23.6586
23.8351
24.0099
24.183
24.3544
24.5242
24.6923
24.8587
25.0235
25.1866
25.348
25.5079
25.6661
25.8227
25.9777
26.1311
26.2829
26.4332
26.5818
26.7289
26.8745
27.0185
27.1609
27.3018
27.4412
27.5791
27.7155
27.8504
27.9838
28.1158
28.2462
28.3753
28.5028
28.629
28.7537
28.8769
28.9988
29.1193
29.2383
29.356
29.4723
29.5873
29.7009
29.8131
29.924
30.0336
30.1418
30.2487
30.3544
30.4587
30.5617
30.6635
30.764
30.8632
30.9612
31.0579
31.1534
31.2476
31.3407
31.4325
31.5231
31.6125
31.7007
31.7878
31.8736
31.9584
32.0419
32.1243
32.2055
32.2857
32.3646
32.4425
32.5193
32.5949
32.6694
32.7429
32.8152
32.8865
32.9567
33.0259
33.094
33.161
33.227
33.2919
33.3559
33.4187
33.4806
33.5415
33.6013
33.6602
33.718
33.7749
33.8307
33.8856
33.9396
33.9925
34.0445
34.0955
34.1456
34.1948
34.243
34.2902
34.3366
34.382
34.4265
34.4701
34.5127
34.5545
34.5953
34.6353
34.6744
34.7126
34.7499
34.7863
34.8219
34.8566
34.8904
34.9233
34.9554
34.9867
35.0171
35.0466
35.0753
35.1032
35.1303
35.1565
35.1818
35.2064
35.2301
35.253
35.2751
35.2964
35.3168
35.3365
35.3553
35.3734
35.3906
35.407
35.4227
35.4375
35.4516
35.4649
35.4773
35.489
35.4999
35.51
35.5194
35.5279
35.5357
35.5427
35.5489
35.5543
35.559
35.5629
35.566
35.5683
35.5699
35.5706
-9.02642
-9.02237
-9.0143
-9.00218
-8.98603
-8.96582
-8.94155
-8.91322
-8.8808
-8.84429
-8.80366
-8.75891
-8.71001
-8.65693
-8.59966
-8.53817
-8.47244
-8.40244
-8.32815
-8.24952
-8.16654
-8.07918
-7.98739
-7.89116
-7.79046
-7.68524
-7.5755
-7.46119
-7.34229
-7.21879
-7.09066
-6.95788
-6.82045
-6.67836
-6.5316
-6.38019
-6.22414
-6.06347
-5.89821
-5.72842
-5.55414
-5.37543
-5.19237
-5.00504
-4.81355
-4.61798
-4.41845
-4.21509
-4.008
-3.79731
-3.58314
-3.36562
-3.14487
-2.921
-2.69412
-2.46434
-2.23177
-1.99651
-1.75864
-1.51827
-1.27548