/*--------------------------------*- C++ -*----------------------------------*\
| =========                 |                                                 |
| \\      /  F ield         | OpenFOAM: The Open Source CFD Toolbox           |
|  \\    /   O peration     | Version:  2212                                  |
|   \\  /    A nd           | Website:  www.openfoam.com                      |
|    \\/     M anipulation  |                                                 |
\*---------------------------------------------------------------------------*/
FoamFile
{
    version     2.0;
    format      ascii;
    arch        "LSB;label=32;scalar=64";
    class       volScalarField;
    location    "140";
    object      p_rgh_0;
}
// * * * * * * * * * * * * * * * * * * * * * * * * * * * * * * * * * * * * * //

dimensions      [1 -1 -2 0 0 0 0];

internalField   nonuniform List<scalar> 
204800
(
-9.15653
-9.15172
-9.14165
-9.1267
-9.10664
-9.08165
-9.05162
-9.01665
-8.9767
-8.93184
-8.88209
-8.82749
-8.76809
-8.70395
-8.6351
-8.5616
-8.48349
-8.40082
-8.31363
-8.22197
-8.12589
-8.02544
-7.92065
-7.81158
-7.69827
-7.58075
-7.45907
-7.33327
-7.20338
-7.06944
-6.93148
-6.78953
-6.64363
-6.49381
-6.3401
-6.18252
-6.02113
-5.85594
-5.68699
-5.51432
-5.33797
-5.15798
-4.97439
-4.78723
-4.59657
-4.40244
-4.20489
-4.00399
-3.79977
-3.5923
-3.38163
-3.16783
-2.95096
-2.73108
-2.50827
-2.28258
-2.05409
-1.82287
-1.589
-1.35255
-1.11359
-0.872216
-0.628497
-0.382513
-0.134348
0.115916
0.368196
0.622408
0.878469
1.13629
1.39579
1.65689
1.91949
2.18351
2.44887
2.71548
2.98326
3.25211
3.52197
3.79273
4.06433
4.33667
4.60968
4.88327
5.15737
5.4319
5.70678
5.98192
6.25727
6.53274
6.80826
7.08377
7.35918
7.63443
7.90946
8.1842
8.45858
8.73254
9.00603
9.27898
9.55133
9.82304
10.094
10.3643
10.6337
10.9023
11.1699
11.4367
11.7024
11.967
12.2306
12.4931
12.7544
13.0145
13.2734
13.531
13.7873
14.0423
14.2959
14.5481
14.7989
15.0482
15.2961
15.5425
15.7873
16.0307
16.2725
16.5127
16.7513
16.9883
17.2237
17.4574
17.6895
17.9199
18.1487
18.3758
18.6011
18.8248
19.0468
19.267
19.4856
19.7024
19.9174
20.1307
20.3423
20.5521
20.7602
20.9666
21.1712
21.374
21.5751
21.7745
21.9721
22.1679
22.362
22.5544
22.745
22.9339
23.1211
23.3065
23.4902
23.6722
23.8525
24.0311
24.2079
24.3831
24.5566
24.7284
24.8985
25.0669
25.2337
25.3988
25.5623
25.7241
25.8843
26.0429
26.1999
26.3552
26.5089
26.6611
26.8116
26.9606
27.108
27.2538
27.3981
27.5409
27.6821
27.8218
27.9599
28.0966
28.2318
28.3654
28.4976
28.6283
28.7576
28.8854
29.0117
29.1366
29.2601
29.3821
29.5028
29.622
29.7399
29.8564
29.9715
30.0852
30.1976
30.3086
30.4183
30.5266
30.6337
30.7394
30.8438
30.9469
31.0487
31.1493
31.2485
31.3465
31.4433
31.5388
31.6331
31.7261
31.8179
31.9085
31.9979
32.0861
32.1731
32.2589
32.3436
32.4271
32.5094
32.5906
32.6706
32.7495
32.8272
32.9039
32.9794
33.0538
33.1271
33.1993
33.2704
33.3405
33.4094
33.4773
33.5442
33.6099
33.6747
33.7384
33.801
33.8627
33.9233
33.9829
34.0414
34.099
34.1556
34.2112
34.2658
34.3194
34.372
34.4237
34.4744
34.5242
34.573
34.6208
34.6677
34.7137
34.7588
34.8029
34.8461
34.8883
34.9297
34.9701
35.0097
35.0483
35.0861
35.123
35.159
35.1941
35.2283
35.2616
35.2941
35.3257
35.3565
35.3864
35.4154
35.4436
35.471
35.4975
35.5232
35.548
35.572
35.5952
35.6175
35.639
35.6597
35.6796
35.6987
35.7169
35.7343
35.751
35.7668
35.7818
35.796
35.8095
35.8221
35.8339
35.8449
35.8551
35.8646
35.8732
35.8811
35.8882
35.8944
35.8999
35.9046
35.9086
35.9117
35.9141
35.9156
35.9164
-9.10431
-9.09956
-9.08988
-9.07546
-9.05614
-9.03207
-9.00315
-8.96946
-8.93097
-8.88773
-8.83972
-8.78699
-8.72954
-8.6674
-8.60059
-8.52914
-8.45306
-8.37241
-8.28719
-8.19744
-8.1032
-8.00449
-7.90135
-7.79383
-7.68194
-7.56574
-7.44526
-7.32054
-7.19162
-7.05854
-6.92135
-6.78008
-6.63478
-6.48549
-6.33225
-6.1751
-6.01408
-5.84923
-5.6806
-5.50823
-5.33217
-5.15245
-4.96913
-4.78224
-4.59185
-4.39799
-4.20072
-4.0001
-3.79617
-3.58899
-3.37863
-3.16514
-2.94858
-2.72903
-2.50654
-2.28119
-2.05304
-1.82217
-1.58866
-1.35257
-1.11398
-0.872983
-0.629645
-0.384049
-0.136277
0.113589
0.365466
0.61927
0.874917
1.13232
1.3914
1.65207
1.91424
2.17782
2.44274
2.70891
2.97623
3.24464
3.51404
3.78435
4.05548
4.32736
4.5999
4.87303
5.14665
5.42071
5.69511
5.96978
6.24465
6.51963
6.79467
7.06969
7.34462
7.61938
7.89392
8.16817
8.44206
8.71554
8.98853
9.26099
9.53286
9.80407
10.0746
10.3443
10.6133
10.8814
11.1485
11.4148
11.68
11.9442
12.2073
12.4692
12.7301
12.9897
13.2481
13.5052
13.761
14.0155
14.2686
14.5204
14.7707
15.0196
15.267
15.5129
15.7573
16.0002
16.2415
16.4812
16.7194
16.956
17.1909
17.4242
17.6558
17.8858
18.1141
18.3408
18.5657
18.789
19.0105
19.2303
19.4484
19.6648
19.8794
20.0923
20.3035
20.5129
20.7206
20.9265
21.1307
21.3332
21.5339
21.7328
21.93
22.1255
22.3192
22.5112
22.7015
22.89
23.0768
23.2618
23.4452
23.6268
23.8067
23.985
24.1615
24.3363
24.5094
24.6809
24.8507
25.0188
25.1852
25.35
25.5132
25.6747
25.8345
25.9928
26.1494
26.3045
26.4579
26.6097
26.76
26.9086
27.0557
27.2013
27.3453
27.4877
27.6287
27.7681
27.906
28.0423
28.1772
28.3106
28.4425
28.573
28.702
28.8295
28.9556
29.0803
29.2035
29.3253
29.4457
29.5647
29.6823
29.7986
29.9134
30.0269
30.1391
30.2499
30.3593
30.4675
30.5743
30.6798
30.784
30.8869
30.9885
31.0888
31.1879
31.2857
31.3823
31.4776
31.5716
31.6645
31.7561
31.8465
31.9358
32.0238
32.1106
32.1962
32.2807
32.364
32.4462
32.5272
32.607
32.6858
32.7634
32.8398
32.9152
32.9895
33.0626
33.1347
33.2056
33.2755
33.3444
33.4121
33.4788
33.5445
33.6091
33.6727
33.7352
33.7967
33.8572
33.9166
33.9751
34.0326
34.089
34.1445
34.199
34.2525
34.305
34.3566
34.4072
34.4569
34.5056
34.5533
34.6001
34.646
34.691
34.735
34.7781
34.8203
34.8615
34.9019
34.9414
34.98
35.0176
35.0544
35.0903
35.1254
35.1595
35.1928
35.2252
35.2568
35.2875
35.3173
35.3463
35.3744
35.4017
35.4282
35.4538
35.4786
35.5025
35.5257
35.5479
35.5694
35.5901
35.6099
35.6289
35.6472
35.6646
35.6811
35.6969
35.7119
35.7261
35.7395
35.7521
35.7639
35.7749
35.7851
35.7945
35.8032
35.811
35.8181
35.8243
35.8298
35.8345
35.8384
35.8416
35.8439
35.8455
35.8462
-9.10915
-9.10442
-9.09479
-9.08044
-9.06123
-9.03727
-9.00849
-8.97496
-8.93665
-8.8936
-8.84581
-8.79329
-8.73607
-8.67417
-8.6076
-8.53638
-8.46055
-8.38012
-8.29512
-8.20559
-8.11154
-8.01301
-7.91003
-7.80263
-7.69086
-7.57474
-7.45432
-7.32963
-7.20072
-7.06763
-6.93039
-6.78906
-6.64367
-6.49427
-6.3409
-6.18361
-6.02244
-5.85743
-5.68863
-5.51608
-5.33984
-5.15994
-4.97643
-4.78936
-4.59879
-4.40475
-4.20731
-4.00651
-3.80241
-3.59507
-3.38455
-3.1709
-2.95419
-2.73449
-2.51186
-2.28637
-2.05809
-1.82709
-1.59345
-1.35723
-1.11853
-0.877414
-0.633964
-0.38826
-0.140383
0.109584
0.361558
0.615456
0.871193
1.12869
1.38785
1.64859
1.91084
2.1745
2.43949
2.70572
2.97311
3.24157
3.51103
3.78139
4.05257
4.3245
4.59708
4.87025
5.14391
5.418
5.69243
5.96713
6.24202
6.51703
6.79208
7.06712
7.34205
7.61683
7.89138
8.16563
8.43952
8.71299
8.98598
9.25844
9.53029
9.80149
10.072
10.3417
10.6106
10.8787
11.1458
11.412
11.6772
11.9414
12.2045
12.4664
12.7272
12.9868
13.2451
13.5022
13.758
14.0124
14.2655
14.5172
14.7675
15.0163
15.2636
15.5095
15.7538
15.9967
16.2379
16.4776
16.7157
16.9522
17.1871
17.4203
17.6519
17.8818
18.11
18.3366
18.5615
18.7847
19.0061
19.2259
19.4439
19.6602
19.8748
20.0876
20.2987
20.5081
20.7157
20.9215
21.1256
21.328
21.5286
21.7275
21.9246
22.12
22.3137
22.5056
22.6958
22.8842
23.0709
23.2559
23.4392
23.6208
23.8006
23.9788
24.1552
24.3299
24.503
24.6744
24.8441
25.0121
25.1785
25.3432
25.5063
25.6677
25.8275
25.9857
26.1423
26.2972
26.4506
26.6023
26.7525
26.9011
27.0482
27.1936
27.3376
27.48
27.6208
27.7602
27.898
28.0343
28.1691
28.3024
28.4343
28.5647
28.6936
28.8211
28.9471
29.0717
29.1949
29.3166
29.437
29.5559
29.6735
29.7896
29.9044
30.0179
30.13
30.2407
30.3501
30.4582
30.5649
30.6704
30.7745
30.8774
30.9789
31.0792
31.1782
31.276
31.3725
31.4678
31.5618
31.6546
31.7462
31.8366
31.9257
32.0137
32.1005
32.1861
32.2705
32.3538
32.4359
32.5168
32.5966
32.6753
32.7529
32.8293
32.9046
32.9789
33.052
33.124
33.1949
33.2648
33.3336
33.4013
33.468
33.5336
33.5982
33.6617
33.7242
33.7856
33.8461
33.9055
33.964
34.0214
34.0778
34.1333
34.1877
34.2412
34.2937
34.3453
34.3958
34.4455
34.4941
34.5419
34.5886
34.6345
34.6794
34.7234
34.7665
34.8087
34.8499
34.8903
34.9297
34.9683
35.0059
35.0427
35.0786
35.1136
35.1477
35.181
35.2134
35.2449
35.2756
35.3054
35.3344
35.3625
35.3898
35.4162
35.4418
35.4666
35.4905
35.5137
35.5359
35.5574
35.578
35.5979
35.6169
35.6351
35.6525
35.6691
35.6849
35.6998
35.714
35.7274
35.74
35.7518
35.7628
35.773
35.7824
35.791
35.7988
35.8059
35.8122
35.8176
35.8223
35.8263
35.8294
35.8317
35.8333
35.8341
-9.07872
-9.0741
-9.06478
-9.05084
-9.03222
-9.00898
-8.98106
-8.94853
-8.91134
-8.86953
-8.82307
-8.77199
-8.71626
-8.65591
-8.59092
-8.52132
-8.4471
-8.36828
-8.28487
-8.19688
-8.10432
-8.00723
-7.90561
-7.7995
-7.68892
-7.5739
-7.45447
-7.33069
-7.20258
-7.07018
-6.93355
-6.79274
-6.64778
-6.49873
-6.34565
-6.18858
-6.02757
-5.86268
-5.69396
-5.52146
-5.34524
-5.16535
-4.98183
-4.79475
-4.60416
-4.4101
-4.21264
-4.01183
-3.80772
-3.60038
-3.38986
-3.17623
-2.95954
-2.73987
-2.51728
-2.29184
-2.06362
-1.83268
-1.59911
-1.36299
-1.12437
-0.883357
-0.640014
-0.394425
-0.146671
0.103166
0.355002
0.608754
0.864339
1.12167
1.38067
1.64124
1.90331
2.16678
2.43158
2.69761
2.96479
3.23305
3.50228
3.77242
4.04337
4.31506
4.58741
4.86033
5.13374
5.40757
5.68174
5.95617
6.23079
6.50553
6.7803
7.05505
7.3297
7.60418
7.87843
8.15238
8.42597
8.69913
8.97182
9.24395
9.51549
9.78637
10.0565
10.3259
10.5945
10.8623
11.1291
11.3949
11.6598
11.9236
12.1863
12.4479
12.7084
12.9676
13.2256
13.4823
13.7378
13.9919
14.2446
14.4959
14.7458
14.9943
15.2413
15.4868
15.7308
15.9733
16.2142
16.4535
16.6912
16.9274
17.1619
17.3948
17.626
17.8556
18.0835
18.3097
18.5342
18.757
18.9781
19.1975
19.4152
19.6312
19.8454
20.0579
20.2686
20.4776
20.6849
20.8904
21.0942
21.2963
21.4965
21.6951
21.8919
22.087
22.2803
22.4719
22.6617
22.8499
23.0363
23.2209
23.4039
23.5851
23.7647
23.9425
24.1186
24.2931
24.4658
24.6369
24.8063
24.9741
25.1401
25.3046
25.4674
25.6285
25.788
25.9459
26.1022
26.2569
26.41
26.5615
26.7114
26.8597
27.0065
27.1517
27.2954
27.4375
27.5781
27.7172
27.8548
27.9908
28.1254
28.2585
28.3901
28.5202
28.6489
28.7762
28.902
29.0263
29.1493
29.2708
29.3909
29.5096
29.627
29.7429
29.8575
29.9708
30.0826
30.1932
30.3024
30.4102
30.5168
30.622
30.726
30.8287
30.93
31.0301
31.129
31.2265
31.3229
31.418
31.5118
31.6044
31.6958
31.786
31.875
31.9628
32.0495
32.1349
32.2192
32.3023
32.3842
32.465
32.5447
32.6232
32.7006
32.7769
32.8521
32.9262
32.9992
33.0711
33.1419
33.2116
33.2802
33.3478
33.4144
33.4799
33.5443
33.6077
33.6701
33.7315
33.7918
33.8511
33.9094
33.9668
34.0231
34.0784
34.1328
34.1862
34.2386
34.29
34.3405
34.39
34.4386
34.4862
34.5329
34.5787
34.6235
34.6674
34.7104
34.7525
34.7937
34.834
34.8733
34.9118
34.9494
34.9861
35.0219
35.0569
35.0909
35.1241
35.1565
35.188
35.2186
35.2483
35.2773
35.3053
35.3326
35.359
35.3845
35.4092
35.4331
35.4562
35.4784
35.4998
35.5205
35.5402
35.5592
35.5774
35.5947
35.6113
35.6271
35.642
35.6562
35.6695
35.6821
35.6938
35.7048
35.715
35.7244
35.733
35.7408
35.7479
35.7541
35.7596
35.7643
35.7682
35.7713
35.7736
35.7752
35.776
-9.08434
-9.07976
-9.07052
-9.05671
-9.03826
-9.01522
-8.98756
-8.95531
-8.91844
-8.87698
-8.83091
-8.78024
-8.72496
-8.66507
-8.60058
-8.53148
-8.45779
-8.37951
-8.29664
-8.2092
-8.11718
-8.02062
-7.91951
-7.81389
-7.70377
-7.58918
-7.47014
-7.3467
-7.21888
-7.08673
-6.95028
-6.80959
-6.66471
-6.51568
-6.36255
-6.20539
-6.04425
-5.87918
-5.71024
-5.53749
-5.36099
-5.18079
-4.99695
-4.80954
-4.6186
-4.42419
-4.22638
-4.02521
-3.82076
-3.61307
-3.40221
-3.18824
-2.97123
-2.75124
-2.52833
-2.30258
-2.07405
-1.84283
-1.60897
-1.37257
-1.13368
-0.8924
-0.648799
-0.402959
-0.154962
0.0951119
0.347178
0.601154
0.856956
1.1145
1.3737
1.63447
1.89672
2.16038
2.42535
2.69155
2.9589
3.22731
3.4967
3.76698
4.03807
4.30989
4.58236
4.8554
5.12892
5.40286
5.67713
5.95165
6.22636
6.50117
6.77602
7.05084
7.32555
7.60009
7.87439
8.14839
8.42202
8.69522
8.96793
9.24009
9.51164
9.78253
10.0527
10.3221
10.5907
10.8584
11.1252
11.3911
11.6559
11.9197
12.1824
12.444
12.7044
12.9636
13.2215
13.4782
13.7336
13.9876
14.2403
14.4915
14.7414
14.9898
15.2367
15.4822
15.7261
15.9684
16.2093
16.4485
16.6862
16.9222
17.1566
17.3894
17.6205
17.85
18.0778
18.3039
18.5283
18.7511
18.9721
19.1914
19.4089
19.6248
19.8389
20.0512
20.2619
20.4708
20.6779
20.8833
21.087
21.2889
21.4891
21.6875
21.8842
22.0791
22.2723
22.4638
22.6535
22.8415
23.0278
23.2124
23.3952
23.5763
23.7557
23.9334
24.1095
24.2838
24.4564
24.6274
24.7966
24.9643
25.1302
25.2945
25.4572
25.6182
25.7776
25.9354
26.0916
26.2461
26.3991
26.5505
26.7002
26.8485
26.9951
27.1402
27.2838
27.4258
27.5663
27.7053
27.8427
27.9787
28.1131
28.2461
28.3776
28.5076
28.6362
28.7634
28.889
29.0133
29.1361
29.2576
29.3776
29.4962
29.6134
29.7293
29.8438
29.9569
30.0687
30.1791
30.2882
30.396
30.5025
30.6076
30.7115
30.8141
30.9154
31.0154
31.1141
31.2116
31.3078
31.4028
31.4966
31.5891
31.6805
31.7706
31.8595
31.9472
32.0338
32.1191
32.2033
32.2864
32.3682
32.449
32.5286
32.607
32.6844
32.7606
32.8357
32.9097
32.9826
33.0544
33.1252
33.1948
33.2634
33.331
33.3974
33.4629
33.5272
33.5906
33.6529
33.7142
33.7745
33.8338
33.892
33.9493
34.0056
34.0608
34.1152
34.1685
34.2208
34.2722
34.3227
34.3721
34.4207
34.4683
34.5149
34.5607
34.6054
34.6493
34.6923
34.7343
34.7755
34.8157
34.855
34.8935
34.931
34.9677
35.0035
35.0384
35.0724
35.1056
35.1379
35.1693
35.1999
35.2297
35.2586
35.2866
35.3138
35.3402
35.3657
35.3904
35.4143
35.4373
35.4595
35.4809
35.5015
35.5213
35.5402
35.5584
35.5757
35.5923
35.608
35.6229
35.6371
35.6504
35.663
35.6747
35.6857
35.6959
35.7053
35.7139
35.7217
35.7287
35.735
35.7404
35.7451
35.749
35.7521
35.7545
35.756
35.7568
-9.06508
-9.0606
-9.05162
-9.03817
-9.02021
-8.99777
-8.97083
-8.93941
-8.90348
-8.86305
-8.8181
-8.76863
-8.71463
-8.65608
-8.59298
-8.52532
-8.45309
-8.37629
-8.29491
-8.20895
-8.11841
-8.02329
-7.92358
-7.81932
-7.71049
-7.59712
-7.47924
-7.35686
-7.23001
-7.09874
-6.96307
-6.82306
-6.67875
-6.53019
-6.37745
-6.22057
-6.05963
-5.89467
-5.72578
-5.55301
-5.37643
-5.19611
-5.0121
-4.82449
-4.63333
-4.43868
-4.24062
-4.03919
-3.83448
-3.62653
-3.41541
-3.20119
-2.98394
-2.76371
-2.54058
-2.31461
-2.08588
-1.85446
-1.62042
-1.38384
-1.14479
-0.903359
-0.659615
-0.413642
-0.165522
0.0846645
0.336834
0.590904
0.846789
1.10441
1.36367
1.62449
1.8868
2.15049
2.41549
2.68171
2.94907
3.21748
3.48686
3.75713
4.02819
4.29998
4.57241
4.8454
5.11886
5.39273
5.66693
5.94137
6.21599
6.49071
6.76545
7.04016
7.31475
7.58916
7.86333
8.13719
8.41067
8.68372
8.95627
9.22826
9.49965
9.77036
10.0404
10.3096
10.578
10.8455
11.1121
11.3777
11.6424
11.9059
12.1684
12.4297
12.6899
12.9489
13.2066
13.463
13.7181
13.9719
14.2243
14.4753
14.7249
14.9731
15.2197
15.4649
15.7085
15.9506
16.1912
16.4301
16.6675
16.9033
17.1374
17.3699
17.6008
17.8299
18.0575
18.2833
18.5074
18.7298
18.9505
19.1695
19.3868
19.6024
19.8162
20.0283
20.2386
20.4472
20.6541
20.8592
21.0626
21.2642
21.4641
21.6622
21.8586
22.0532
22.2462
22.4373
22.6268
22.8145
23.0005
23.1848
23.3673
23.5481
23.7273
23.9047
24.0804
24.2545
24.4268
24.5975
24.7665
24.9339
25.0996
25.2636
25.426
25.5868
25.7459
25.9034
26.0593
26.2136
26.3663
26.5175
26.667
26.815
26.9614
27.1062
27.2495
27.3913
27.5316
27.6703
27.8075
27.9432
28.0775
28.2102
28.3415
28.4713
28.5996
28.7266
28.852
28.9761
29.0987
29.2199
29.3397
29.4581
29.5751
29.6908
29.8051
29.918
30.0296
30.1398
30.2488
30.3563
30.4626
30.5676
30.6712
30.7736
30.8747
30.9746
31.0731
31.1704
31.2665
31.3613
31.4549
31.5473
31.6385
31.7284
31.8172
31.9047
31.9911
32.0763
32.1604
32.2432
32.325
32.4056
32.485
32.5633
32.6405
32.7166
32.7916
32.8654
32.9382
33.0099
33.0805
33.15
33.2185
33.2859
33.3523
33.4176
33.4818
33.5451
33.6073
33.6685
33.7286
33.7878
33.8459
33.9031
33.9593
34.0145
34.0687
34.1219
34.1741
34.2254
34.2758
34.3252
34.3736
34.4211
34.4677
34.5133
34.558
34.6018
34.6447
34.6867
34.7277
34.7679
34.8071
34.8455
34.883
34.9196
34.9553
34.9902
35.0241
35.0572
35.0895
35.1209
35.1514
35.1811
35.2099
35.2379
35.2651
35.2914
35.3169
35.3415
35.3653
35.3883
35.4105
35.4319
35.4524
35.4722
35.4911
35.5092
35.5265
35.543
35.5587
35.5736
35.5878
35.6011
35.6136
35.6253
35.6363
35.6464
35.6558
35.6644
35.6722
35.6792
35.6854
35.6909
35.6956
35.6995
35.7026
35.7049
35.7065
35.7073
-9.0681
-9.06367
-9.0548
-9.0415
-9.02376
-9.0016
-8.97498
-8.94393
-8.90842
-8.86846
-8.82403
-8.77512
-8.72173
-8.66384
-8.60144
-8.53453
-8.46308
-8.3871
-8.30656
-8.22147
-8.13182
-8.0376
-7.9388
-7.83544
-7.7275
-7.61501
-7.49796
-7.37638
-7.25029
-7.1197
-6.98466
-6.84521
-6.70137
-6.5532
-6.40076
-6.24409
-6.08327
-5.91835
-5.7494
-5.57651
-5.39973
-5.21914
-5.03482
-4.84683
-4.65526
-4.46017
-4.26163
-4.05972
-3.8545
-3.64604
-3.43441
-3.21968
-3.00191
-2.78118
-2.55755
-2.3311
-2.10189
-1.86999
-1.63549
-1.39846
-1.15897
-0.917106
-0.67294
-0.426555
-0.178033
0.0725458
0.325098
0.57954
0.835788
1.09376
1.35336
1.61452
1.87715
2.14116
2.40646
2.67298
2.94062
3.2093
3.47895
3.74947
4.02078
4.29281
4.56546
4.83867
5.11234
5.38641
5.6608
5.93542
6.21021
6.48509
6.75999
7.03484
7.30957
7.58411
7.85839
8.13236
8.40594
8.67908
8.95171
9.22379
9.49524
9.76601
10.0361
10.3053
10.5738
10.8413
11.1079
11.3736
11.6382
11.9018
12.1643
12.4256
12.6857
12.9447
13.2024
13.4588
13.7138
13.9676
14.2199
14.4709
14.7204
14.9685
15.2151
15.4602
15.7037
15.9457
16.1862
16.4251
16.6624
16.898
17.132
17.3644
17.5952
17.8242
18.0516
18.2773
18.5013
18.7236
18.9442
19.1631
19.3802
19.5957
19.8093
20.0213
20.2315
20.4399
20.6467
20.8516
21.0548
21.2563
21.4561
21.654
21.8503
22.0448
22.2375
22.4286
22.6179
22.8054
22.9912
23.1754
23.3577
23.5384
23.7174
23.8947
24.0703
24.2441
24.4163
24.5869
24.7557
24.9229
25.0884
25.2523
25.4146
25.5752
25.7341
25.8915
26.0472
26.2014
26.3539
26.5049
26.6543
26.8021
26.9484
27.0931
27.2362
27.3779
27.518
27.6565
27.7936
27.9292
28.0633
28.1959
28.327
28.4567
28.5849
28.7116
28.837
28.9609
29.0834
29.2044
29.3241
29.4424
29.5593
29.6748
29.789
29.9018
30.0132
30.1233
30.2321
30.3396
30.4457
30.5506
30.6541
30.7564
30.8574
30.9571
31.0555
31.1527
31.2487
31.3434
31.4369
31.5291
31.6202
31.71
31.7987
31.8861
31.9724
32.0575
32.1414
32.2242
32.3059
32.3863
32.4657
32.5439
32.621
32.697
32.7719
32.8457
32.9183
32.9899
33.0605
33.1299
33.1983
33.2656
33.3319
33.3971
33.4613
33.5245
33.5866
33.6477
33.7078
33.7669
33.825
33.882
33.9381
33.9932
34.0474
34.1005
34.1527
34.204
34.2543
34.3036
34.352
34.3994
34.4459
34.4915
34.5362
34.5799
34.6227
34.6646
34.7056
34.7457
34.7849
34.8233
34.8607
34.8973
34.9329
34.9677
35.0017
35.0347
35.0669
35.0983
35.1288
35.1584
35.1872
35.2152
35.2423
35.2686
35.294
35.3186
35.3424
35.3654
35.3876
35.4089
35.4294
35.4491
35.468
35.4861
35.5034
35.5199
35.5356
35.5505
35.5646
35.5779
35.5904
35.6021
35.613
35.6232
35.6325
35.6411
35.6489
35.6559
35.6621
35.6676
35.6722
35.6761
35.6792
35.6816
35.6831
35.6839
-9.05338
-9.04905
-9.04039
-9.02741
-9.01009
-8.98844
-8.96245
-8.93211
-8.89741
-8.85835
-8.8149
-8.76706
-8.71481
-8.65813
-8.597
-8.53142
-8.46135
-8.38679
-8.30771
-8.22411
-8.13596
-8.04325
-7.94596
-7.8441
-7.73765
-7.6266
-7.51096
-7.39074
-7.26594
-7.13658
-7.00269
-6.86428
-6.7214
-6.57408
-6.42237
-6.26634
-6.10602
-5.9415
-5.77284
-5.60012
-5.42342
-5.24281
-5.05838
-4.8702
-4.67838
-4.48297
-4.28408
-4.08177
-3.87612
-3.66722
-3.45513
-3.23993
-3.0217
-2.8005
-2.5764
-2.34949
-2.11984
-1.88751
-1.65258
-1.41513
-1.17524
-0.932986
-0.688443
-0.441693
-0.192817
0.0581019
0.310982
0.56574
0.822292
1.08055
1.34044
1.60187
1.86475
2.129
2.39454
2.66127
2.92913
3.19801
3.46784
3.73853
4.01001
4.28219
4.55498
4.82832
5.10211
5.37628
5.65076
5.92547
6.20034
6.47528
6.75023
7.02513
7.29989
7.57445
7.84875
8.12272
8.39629
8.66942
8.94203
9.21406
9.48547
9.75619
10.0262
10.2954
10.5637
10.8312
11.0977
11.3633
11.6278
11.8913
12.1536
12.4148
12.6748
12.9336
13.1911
13.4474
13.7023
13.9559
14.2081
14.4588
14.7082
14.9561
15.2025
15.4473
15.6907
15.9325
16.1728
16.4114
16.6485
16.8839
17.1177
17.3499
17.5804
17.8092
18.0364
18.2618
18.4856
18.7076
18.928
19.1466
19.3635
19.5787
19.7921
20.0038
20.2137
20.4219
20.6284
20.8331
21.036
21.2373
21.4367
21.6344
21.8304
22.0247
22.2172
22.4079
22.5969
22.7842
22.9698
23.1536
23.3358
23.5162
23.6949
23.8719
24.0472
24.2208
24.3928
24.5631
24.7316
24.8986
25.0639
25.2275
25.3895
25.5498
25.7085
25.8657
26.0212
26.175
26.3274
26.4781
26.6272
26.7748
26.9208
27.0653
27.2082
27.3496
27.4894
27.6278
27.7646
27.9
28.0338
28.1662
28.2971
28.4266
28.5546
28.6811
28.8062
28.9299
29.0522
29.173
29.2925
29.4106
29.5272
29.6426
29.7565
29.8691
29.9804
30.0903
30.1989
30.3062
30.4121
30.5168
30.6201
30.7222
30.823
30.9225
31.0208
31.1178
31.2136
31.3081
31.4015
31.4936
31.5844
31.6741
31.7626
31.8499
31.936
32.021
32.1047
32.1874
32.2689
32.3492
32.4284
32.5065
32.5834
32.6593
32.734
32.8076
32.8802
32.9517
33.0221
33.0914
33.1596
33.2268
33.293
33.3581
33.4221
33.4852
33.5472
33.6082
33.6682
33.7271
33.7851
33.8421
33.8981
33.9531
34.0071
34.0602
34.1123
34.1634
34.2136
34.2628
34.3111
34.3585
34.4049
34.4504
34.495
34.5386
34.5814
34.6232
34.6641
34.7041
34.7433
34.7815
34.8189
34.8554
34.891
34.9257
34.9596
34.9926
35.0247
35.056
35.0865
35.116
35.1448
35.1727
35.1998
35.226
35.2514
35.276
35.2997
35.3226
35.3448
35.366
35.3865
35.4062
35.4251
35.4431
35.4604
35.4768
35.4925
35.5074
35.5214
35.5347
35.5472
35.5589
35.5698
35.5799
35.5893
35.5978
35.6056
35.6126
35.6188
35.6242
35.6289
35.6328
35.6359
35.6382
35.6398
35.6405
-9.05218
-9.0479
-9.03937
-9.02656
-9.00948
-8.98813
-8.96249
-8.93256
-8.89833
-8.8598
-8.81693
-8.76973
-8.71818
-8.66226
-8.60194
-8.53723
-8.46808
-8.3945
-8.31644
-8.23391
-8.14687
-8.0553
-7.9592
-7.85853
-7.7533
-7.64348
-7.52907
-7.41006
-7.28645
-7.15825
-7.02546
-6.88811
-6.74621
-6.5998
-6.44891
-6.29359
-6.13388
-5.96986
-5.80158
-5.62912
-5.45256
-5.27198
-5.08747
-4.89911
-4.70701
-4.51125
-4.31192
-4.10912
-3.90293
-3.69344
-3.48073
-3.2649
-3.04601
-2.82414
-2.59939
-2.37181
-2.14149
-1.90851
-1.67294
-1.43486
-1.19435
-0.951484
-0.706342
-0.459006
-0.209558
0.0419219
0.29535
0.550643
0.807717
1.06649
1.32687
1.58878
1.85214
2.11685
2.38283
2.65
2.91827
3.18756
3.45779
3.72886
4.00071
4.27324
4.54638
4.82005
5.09416
5.36864
5.64342
5.91841
6.19354
6.46874
6.74394
7.01907
7.29405
7.56883
7.84332
8.11748
8.39123
8.66452
8.93728
9.20946
9.481
9.75185
10.0219
10.2912
10.5597
10.8272
11.0938
11.3594
11.624
11.8875
12.1499
12.4111
12.6712
12.93
13.1875
13.4437
13.6986
13.9522
14.2043
14.4551
14.7044
14.9522
15.1985
15.4434
15.6867
15.9284
16.1686
16.4071
16.6441
16.8794
17.1131
17.3452
17.5756
17.8043
18.0313
18.2567
18.4803
18.7022
18.9224
19.1409
19.3576
19.5727
19.7859
19.9975
20.2073
20.4153
20.6216
20.8261
21.0289
21.23
21.4293
21.6268
21.8226
22.0167
22.209
22.3996
22.5884
22.7756
22.9609
23.1446
23.3266
23.5068
23.6853
23.8622
24.0373
24.2107
24.3825
24.5526
24.721
24.8877
25.0528
25.2162
25.378
25.5382
25.6968
25.8537
26.009
26.1627
26.3148
26.4654
26.6143
26.7617
26.9076
27.0518
27.1946
27.3358
27.4755
27.6137
27.7503
27.8855
28.0192
28.1514
28.2821
28.4114
28.5392
28.6656
28.7905
28.9141
29.0362
29.1569
29.2762
29.3941
29.5106
29.6258
29.7396
29.852
29.9631
30.0729
30.1813
30.2884
30.3943
30.4988
30.602
30.7039
30.8046
30.904
31.0021
31.099
31.1946
31.289
31.3822
31.4742
31.5649
31.6545
31.7428
31.83
31.916
32.0008
32.0845
32.167
32.2483
32.3285
32.4076
32.4856
32.5624
32.6382
32.7128
32.7863
32.8588
32.9301
33.0004
33.0696
33.1378
33.2049
33.2709
33.3359
33.3999
33.4628
33.5248
33.5857
33.6456
33.7044
33.7623
33.8192
33.8751
33.9301
33.984
34.037
34.089
34.1401
34.1902
34.2393
34.2875
34.3348
34.3812
34.4266
34.4711
34.5147
34.5574
34.5991
34.64
34.68
34.719
34.7572
34.7945
34.831
34.8665
34.9012
34.935
34.968
35.0001
35.0313
35.0617
35.0912
35.1199
35.1478
35.1748
35.201
35.2264
35.2509
35.2746
35.2975
35.3196
35.3409
35.3613
35.3809
35.3998
35.4178
35.435
35.4515
35.4671
35.4819
35.496
35.5092
35.5217
35.5334
35.5443
35.5544
35.5637
35.5723
35.58
35.587
35.5932
35.5987
35.6033
35.6072
35.6103
35.6126
35.6142
35.6149
-9.03824
-9.03405
-9.0257
-9.01316
-8.99645
-8.97554
-8.95044
-8.92114
-8.88762
-8.84987
-8.80787
-8.76162
-8.71108
-8.65625
-8.59709
-8.53359
-8.46573
-8.39348
-8.31682
-8.23571
-8.15015
-8.0601
-7.96554
-7.86644
-7.76279
-7.65456
-7.54174
-7.42431
-7.30227
-7.1756
-7.04431
-6.9084
-6.76788
-6.62277
-6.47309
-6.31888
-6.16019
-5.99705
-5.82954
-5.65772
-5.48166
-5.30145
-5.11717
-4.92892
-4.7368
-4.54091
-4.34134
-4.13821
-3.93161
-3.72164
-3.50841
-3.292
-3.0725
-2.85001
-2.6246
-2.39638
-2.16541
-1.93177
-1.69556
-1.45684
-1.2157
-0.972224
-0.726483
-0.478561
-0.22854
0.0234967
0.277468
0.533289
0.790877
1.05015
1.31101
1.57339
1.8372
2.10235
2.36876
2.63634
2.90501
3.17468
3.44528
3.71671
3.98889
4.26175
4.5352
4.80916
5.08355
5.3583
5.63333
5.90856
6.18392
6.45934
6.73474
7.01005
7.2852
7.56014
7.83478
8.10907
8.38295
8.65634
8.9292
9.20147
9.47308
9.74398
10.0141
10.2835
10.5519
10.8195
11.0861
11.3517
11.6163
11.8798
12.1421
12.4033
12.6633
12.922
13.1795
13.4356
13.6904
13.9439
14.1959
14.4466
14.6957
14.9434
15.1896
15.4343
15.6775
15.9191
16.1591
16.3975
16.6343
16.8694
17.1029
17.3348
17.565
17.7935
18.0204
18.2455
18.4689
18.6906
18.9106
19.1289
19.3454
19.5602
19.7733
19.9846
20.1941
20.4019
20.608
20.8123
21.0148
21.2157
21.4147
21.612
21.8076
22.0014
22.1935
22.3838
22.5724
22.7592
22.9444
23.1278
23.3095
23.4895
23.6677
23.8443
24.0192
24.1924
24.3639
24.5337
24.7019
24.8684
25.0332
25.1964
25.3579
25.5179
25.6762
25.8328
25.9879
26.1414
26.2932
26.4435
26.5923
26.7394
26.885
27.029
27.1716
27.3125
27.452
27.5899
27.7264
27.8613
27.9947
28.1267
28.2572
28.3863
28.5139
28.64
28.7648
28.8881
29.01
29.1304
29.2495
29.3672
29.4835
29.5985
29.7121
29.8243
29.9352
30.0448
30.153
30.26
30.3656
30.4699
30.5729
30.6747
30.7751
30.8743
30.9723
31.069
31.1644
31.2587
31.3517
31.4435
31.534
31.6234
31.7116
31.7986
31.8845
31.9691
32.0526
32.135
32.2162
32.2962
32.3752
32.453
32.5297
32.6053
32.6797
32.7531
32.8254
32.8967
32.9668
33.0359
33.1039
33.1709
33.2368
33.3017
33.3655
33.4283
33.4901
33.5509
33.6107
33.6695
33.7272
33.784
33.8398
33.8946
33.9485
34.0014
34.0533
34.1042
34.1542
34.2033
34.2514
34.2986
34.3449
34.3902
34.4346
34.4781
34.5207
34.5624
34.6032
34.6431
34.6821
34.7202
34.7574
34.7938
34.8293
34.8639
34.8976
34.9305
34.9625
34.9937
35.0241
35.0535
35.0822
35.11
35.137
35.1631
35.1884
35.2129
35.2366
35.2594
35.2814
35.3027
35.3231
35.3427
35.3615
35.3795
35.3967
35.4131
35.4287
35.4435
35.4575
35.4707
35.4832
35.4948
35.5057
35.5158
35.5251
35.5336
35.5414
35.5483
35.5545
35.5599
35.5646
35.5685
35.5715
35.5739
35.5754
35.5762
-9.03222
-9.02809
-9.01986
-9.0075
-8.99103
-8.97043
-8.94569
-8.9168
-8.88376
-8.84655
-8.80515
-8.75955
-8.70974
-8.65568
-8.59737
-8.53477
-8.46786
-8.39663
-8.32104
-8.24107
-8.1567
-8.06788
-7.97461
-7.87684
-7.77456
-7.66774
-7.55635
-7.44038
-7.31981
-7.19461
-7.06479
-6.93032
-6.79122
-6.64748
-6.49912
-6.34617
-6.18863
-6.02657
-5.86001
-5.68902
-5.51367
-5.33402
-5.15017
-4.96221
-4.77023
-4.57433
-4.37464
-4.17125
-3.96428
-3.75385
-3.54006
-3.32303
-3.10285
-2.87963
-2.65347
-2.42445
-2.19268
-1.95824
-1.72122
-1.48169
-1.23975
-0.995484
-0.748964
-0.500277
-0.249504
0.00326976
0.257963
0.514491
0.77277
1.03272
1.29424
1.55727
1.8217
2.08747
2.35447
2.62263
2.89187
3.16209
3.43322
3.70517
3.97786
4.2512
4.52512
4.79954
5.07437
5.34955
5.62499
5.90061
6.17635
6.45213
6.72787
7.00352
7.27899
7.55423
7.82916
8.10373
8.37786
8.65151
8.9246
9.19708
9.4689
9.74
10.0103
10.2798
10.5485
10.8162
11.0829
11.3486
11.6133
11.8768
12.1393
12.4005
12.6606
12.9193
13.1768
13.433
13.6879
13.9413
14.1934
14.444
14.6932
14.9408
15.187
15.4316
15.6747
15.9163
16.1562
16.3945
16.6312
16.8663
17.0997
17.3315
17.5616
17.79
18.0167
18.2417
18.465
18.6866
18.9065
19.1246
19.341
19.5556
19.7685
19.9796
20.189
20.3967
20.6026
20.8067
21.0091
21.2097
21.4086
21.6057
21.8011
21.9947
22.1866
22.3767
22.5651
22.7518
22.9367
23.12
23.3014
23.4812
23.6593
23.8357
24.0103
24.1833
24.3546
24.5243
24.6922
24.8585
25.0231
25.1861
25.3475
25.5072
25.6653
25.8217
25.9766
26.1299
26.2815
26.4316
26.5801
26.7271
26.8725
27.0163
27.1586
27.2994
27.4386
27.5764
27.7126
27.8474
27.9806
28.1124
28.2427
28.3716
28.499
28.625
28.7495
28.8726
28.9943
29.1146
29.2335
29.351
29.4672
29.5819
29.6954
29.8074
29.9182
30.0275
30.1356
30.2424
30.3478
30.452
30.5548
30.6564
30.7567
30.8558
30.9535
31.0501
31.1454
31.2395
31.3323
31.4239
31.5144
31.6036
31.6917
31.7785
31.8642
31.9487
32.0321
32.1143
32.1954
32.2753
32.3541
32.4318
32.5083
32.5838
32.6582
32.7314
32.8036
32.8747
32.9447
33.0137
33.0816
33.1485
33.2143
33.279
33.3428
33.4055
33.4672
33.5278
33.5875
33.6462
33.7039
33.7605
33.8162
33.871
33.9247
33.9775
34.0293
34.0802
34.1301
34.1791
34.2271
34.2742
34.3204
34.3657
34.41
34.4534
34.496
34.5376
34.5783
34.6181
34.657
34.6951
34.7322
34.7685
34.804
34.8385
34.8722
34.905
34.937
34.9681
34.9984
35.0278
35.0564
35.0842
35.1111
35.1372
35.1625
35.1869
35.2105
35.2333
35.2553
35.2765
35.2969
35.3165
35.3352
35.3532
35.3704
35.3867
35.4023
35.4171
35.4311
35.4443
35.4567
35.4683
35.4792
35.4893
35.4986
35.5071
35.5148
35.5218
35.5279
35.5334
35.538
35.5418
35.5449
35.5473
35.5488
35.5496
-9.01687
-9.01281
-9.00474
-8.99262
-8.97647
-8.95625
-8.93199
-8.90365
-8.87123
-8.83471
-8.79408
-8.74932
-8.70041
-8.64733
-8.59005
-8.52856
-8.46282
-8.39281
-8.31851
-8.23988
-8.15689
-8.06952
-7.97773
-7.88149
-7.78078
-7.67556
-7.56581
-7.4515
-7.3326
-7.20909
-7.08096
-6.94818
-6.81075
-6.66865
-6.5219
-6.37049
-6.21444
-6.05377
-5.88852
-5.71873
-5.54446
-5.36576
-5.18271
-4.99539
-4.8039
-4.60834
-4.40883
-4.20547
-3.99839
-3.78771
-3.57356
-3.35606
-3.13532
-2.91146
-2.6846
-2.45484