/*--------------------------------*- C++ -*----------------------------------*\
| =========                 |                                                 |
| \\      /  F ield         | OpenFOAM: The Open Source CFD Toolbox           |
|  \\    /   O peration     | Version:  2212                                  |
|   \\  /    A nd           | Website:  www.openfoam.com                      |
|    \\/     M anipulation  |                                                 |
\*---------------------------------------------------------------------------*/
FoamFile
{
    version     2.0;
    format      ascii;
    arch        "LSB;label=32;scalar=64";
    class       surfaceScalarField;
    location    "140";
    object      phi;
}
// * * * * * * * * * * * * * * * * * * * * * * * * * * * * * * * * * * * * * //

dimensions      [1 0 -1 0 0 0 0];

oriented        oriented;

internalField   nonuniform List<scalar> 
408640
(
-1094.74
1095.71
-2190.06
1095.73
-3284.63
1094.97
-4377.5
1093.26
-5467.89
1090.77
-6554.85
1087.33
-7637.37
1082.89
-8714.33
1077.33
-9784.58
1070.6
-10846.9
1062.67
-11900.1
1053.57
-12943.2
1043.39
-13975.1
1032.26
-14995.1
1020.32
-16002.5
1007.66
-16996.4
994.288
-17976.3
980.125
-18941.1
965.086
-19889.9
949.138
-20822
932.32
-21736.4
914.719
-22632.6
896.424
-23509.8
877.505
-24367.5
858.024
-25205.3
838.054
-26022.7
817.684
-26819.5
797.006
-27595.3
776.114
-28350.2
755.098
-29083.9
734.04
-29796.7
713.006
-30488.5
692.045
-31159.4
671.192
-31809.6
650.471
-32439.2
629.905
-33048.5
609.507
-33637.5
589.289
-34206.5
569.258
-34755.6
549.423
-35285.1
529.79
-35795.2
510.361
-36286.1
491.135
-36757.9
472.111
-37210.9
453.288
-37645.3
434.665
-38061.3
416.245
-38459.1
398.032
-38838.8
380.027
-39200.8
362.237
-39545.2
344.664
-39872.2
327.313
-40182.1
310.185
-40475.2
293.286
-40751.5
276.617
-41011.4
260.182
-41255.1
243.986
-41482.9
228.031
-41695
212.322
-41891.6
196.862
-42073
181.656
-42239.4
166.707
-42391.2
152.02
-42528.5
137.597
-42651.7
123.441
-42761
109.557
-42856.7
95.9454
-42939
82.6098
-43008.3
69.5518
-43064.8
56.773
-43108.9
44.2748
-43140.7
32.058
-43160.5
20.1234
-43168.8
8.47136
-43165.6
-2.89815
-43151.4
-13.9854
-43126.4
-24.7908
-43090.8
-35.3152
-43045
-45.5598
-42989.2
-55.5257
-42923.8
-65.2145
-42848.9
-74.6281
-42764.9
-83.7683
-42672.1
-92.6373
-42570.6
-101.238
-42460.8
-109.571
-42342.9
-117.642
-42217.3
-125.452
-42084
-133.004
-41943.5
-140.301
-41796
-147.347
-41641.6
-154.146
-41480.7
-160.7
-41313.5
-167.013
-41140.2
-173.09
-40961.1
-178.933
-40776.3
-184.548
-40586.2
-189.937
-40390.9
-195.104
-40190.6
-200.055
-39985.6
-204.792
-39776.1
-209.321
-39562.3
-213.645
-39344.4
-217.768
-39122.5
-221.696
-38896.9
-225.431
-38667.7
-228.979
-38435.2
-232.344
-38199.5
-235.529
-37960.8
-238.54
-37719.2
-241.38
-37475
-244.054
-37228.3
-246.566
-36979.2
-248.92
-36727.9
-251.121
-36474.6
-253.172
-36219.4
-255.077
-35962.4
-256.841
-35703.8
-258.468
-35443.7
-259.961
-35182.2
-261.325
-34919.5
-262.563
-34655.7
-263.679
-34390.9
-264.677
-34125.2
-265.561
-33858.8
-266.334
-33591.6
-267.001
-33323.9
-267.563
-33055.8
-268.026
-32787.3
-268.391
-32518.5
-268.664
-32249.6
-268.846
-31980.5
-268.941
-31711.5
-268.953
-31442.5
-268.884
-31173.6
-268.737
-30905
-268.516
-30636.7
-268.222
-30368.7
-267.86
-30101.2
-267.432
-29834.2
-266.94
-29567.7
-266.386
-29301.9
-265.775
-29036.7
-265.108
-28772.2
-264.387
-28508.5
-263.615
-28245.7
-262.794
-27983.7
-261.926
-27722.6
-261.014
-27462.5
-260.06
-27203.4
-259.066
-26945.3
-258.033
-26688.2
-256.964
-26432.3
-255.861
-26177.6
-254.725
-25924
-253.559
-25671.6
-252.363
-25420.4
-251.14
-25170.5
-249.891
-24921.8
-248.618
-24674.5
-247.322
-24428.4
-246.006
-24183.7
-244.669
-23940.4
-243.314
-23698.5
-241.942
-23457.9
-240.554
-23218.7
-239.151
-22981
-237.736
-22744.7
-236.308
-22509.8
-234.869
-22276.4
-233.42
-22044.5
-231.962
-21814
-230.497
-21585
-229.024
-21357.4
-227.545
-21131.4
-226.062
-20906.9
-224.574
-20683.8
-223.083
-20462.3
-221.589
-20242.2
-220.093
-20023.7
-218.596
-19806.6
-217.099
-19591.1
-215.602
-19377
-214.107
-19164.5
-212.613
-18953.4
-211.121
-18743.9
-209.632
-18535.8
-208.146
-18329.2
-206.664
-18124.1
-205.187
-17920.5
-203.714
-17718.3
-202.247
-17517.6
-200.786
-17318.4
-199.331
-17120.6
-197.882
-16924.3
-196.441
-16729.4
-195.007
-16535.9
-193.581
-16343.9
-192.162
-16153.3
-190.753
-15964
-189.352
-15776.2
-187.96
-15589.8
-186.577
-15404.7
-185.204
-15221
-183.841
-15038.7
-182.487
-14857.7
-181.144
-14678.1
-179.811
-14499.8
-178.489
-14322.8
-177.178
-14147.1
-175.878
-13972.7
-174.589
-13799.5
-173.311
-13627.7
-172.045
-13457.1
-170.79
-13287.8
-169.548
-13119.7
-168.316
-12952.8
-167.097
-12787.1
-165.89
-12622.6
-164.695
-12459.4
-163.513
-12297.3
-162.342
-12136.3
-161.184
-11976.5
-160.038
-11817.9
-158.905
-11660.3
-157.785
-11503.9
-156.677
-11348.6
-155.581
-11194.4
-154.499
-11041.2
-153.429
-10889.2
-152.372
-10738.1
-151.327
-10588.1
-150.295
-10439.1
-149.276
-10291.2
-148.27
-10144.2
-147.277
-9998.22
-146.296
-9853.22
-145.329
-9709.17
-144.374
-9566.07
-143.431
-9423.9
-142.502
-9282.66
-141.585
-9142.32
-140.682
-9002.88
-139.79
-8864.33
-138.912
-8726.64
-138.046
-8589.82
-137.193
-8453.83
-136.353
-8318.69
-135.525
-8184.36
-134.71
-8050.84
-133.907
-7918.11
-133.117
-7786.17
-132.34
-7655
-131.575
-7524.58
-130.822
-7394.91
-130.082
-7265.98
-129.354
-7137.76
-128.638
-7010.25
-127.935
-6883.44
-127.244
-6757.31
-126.565
-6631.85
-125.898
-6507.05
-125.243
-6382.9
-124.601
-6259.39
-123.97
-6136.49
-123.352
-6014.21
-122.745
-5892.53
-122.151
-5771.43
-121.568
-5650.91
-120.997
-5530.96
-120.438
-5411.55
-119.891
-5292.69
-119.355
-5174.35
-118.831
-5056.53
-118.319
-4939.21
-117.818
-4822.39
-117.329
-4706.05
-116.851
-4590.18
-116.385
-4474.76
-115.93
-4359.8
-115.486
-4245.27
-115.054
-4131.16
-114.633
-4017.47
-114.224
-3904.18
-113.826
-3791.28
-113.438
-3678.76
-113.063
-3566.6
-112.698
-3454.81
-112.344
-3343.36
-112.002
-3232.24
-111.67
-3121.45
-111.35
-3010.97
-111.04
-2900.79
-110.741
-2790.9
-110.454
-2681.29
-110.177
-2571.95
-109.911
-2462.86
-109.656
-2354.02
-109.412
-2245.42
-109.178
-2137.04
-108.956
-2028.88
-108.744
-1920.92
-108.543
-1813.15
-108.352
-1705.57
-108.172
-1598.15
-108.003
-1490.89
-107.845
-1383.79
-107.697
-1276.82
-107.56
-1169.98
-107.433
-1063.26
-107.317
-956.64
-107.212
-850.118
-107.117
-743.681
-107.034
-637.318
-106.961
-531.016
-106.899
-424.765
-106.85
-318.55
-106.813
-212.36
-106.789
-106.181
-106.779
-106.781
-1088.06
2184.15
-2176.3
2184.34
-3263.76
2182.79
-4349.63
2179.49
-5433.1
2174.6
-6513.29
2167.87
-7589.27
2159.21
-8660.02
2148.41
-9724.49
2135.39
-10781.6
2120.09
-11830.3
2102.55
-12869.5
2082.92
-13898.4
2061.45
-14916.1
2038.34
-15921.9
2013.77
-16915.1
1987.72
-17894.8
1960.06
-18860
1930.64
-19810
1899.38
-20743.8
1866.36
-21660.6
1831.72
-22559.5
1795.61
-23439.9
1758.18
-24301.2
1719.53
-25142.7
1679.82
-25964
1639.22
-26764.6
1597.91
-27544.3
1556.09
-28302.9
1513.93
-29040.2
1471.62
-29756.3
1429.29
-30451
1387.06
-31124.6
1345.02
-31777.1
1303.21
-32408.6
1261.71
-33019.4
1220.55
-33609.6
1179.77
-34179.5
1139.38
-34729.2
1099.42
-35259
1059.89
-35769.2
1020.81
-36260
982.167
-36731.5
943.963
-37184.2
906.191
-37618.1
868.848
-38033.5
831.934
-38430.6
795.452
-38809.8
759.407
-39171
723.803
-39514.8
688.646
-39841.1
653.939
-40150.3
619.688
-40442.7
585.896
-40718.4
552.569
-40977.6
519.713
-41220.7
487.333
-41447.9
455.438
-41659.3
424.034
-41855.3
393.129
-42036.1
362.732
-42202
332.849
-42353.2
303.488
-42490
274.657
-42612.7
246.361
-42721.5
218.607
-42816.6
191.399
-42898.5
164.743
-42967.4
138.642
-43023.4
113.1
-43067
88.1188
-43098.4
63.7007
-43117.9
39.847
-43125.7
16.5584
-43122.2
-6.16516
-43107.6
-28.3241
-43082.3
-49.9194
-43046.4
-70.9529
-43000.3
-91.4265
-42944.2
-111.343
-42878.5
-130.705
-42803.4
-149.517
-42719.1
-167.783
-42626.1
-185.506
-42524.4
-202.691
-42414.4
-219.344
-42296.3
-235.471
-42170.5
-251.075
-42037.1
-266.165
-41896.4
-280.746
-41748.7
-294.825
-41594.3
-308.408
-41433.3
-321.503
-41266
-334.116
-41092.6
-346.256
-40913.4
-357.93
-40728.6
-369.146
-40538.4
-379.911
-40343.1
-390.234
-40142.8
-400.123
-39937.8
-409.586
-39728.4
-418.632
-39514.5
-427.268
-39296.6
-435.504
-39074.8
-443.348
-38849.2
-450.808
-38620.1
-457.894
-38387.7
-464.613
-38152.1
-470.974
-37913.5
-476.986
-37672
-482.657
-37427.9
-487.996
-37181.3
-493.011
-36932.4
-497.71
-36681.2
-502.103
-36428.1
-506.196
-36173
-509.999
-35916.2
-513.52
-35657.7
-516.765
-35397.8
-519.745
-35136.5
-522.465
-34874
-524.935
-34610.4
-527.161
-34345.8
-529.151
-34080.3
-530.913
-33814.1
-532.453
-33547.2
-533.78
-33279.7
-534.9
-33011.8
-535.82
-32743.5
-536.546
-32475
-537.086
-32206.3
-537.446
-31937.5
-537.633
-31668.7
-537.652
-31399.9
-537.51
-31131.4
-537.213
-30863
-536.766
-30595
-536.176
-30327.3
-535.449
-30060
-534.589
-29793.3
-533.602
-29527.1
-532.493
-29261.5
-531.267
-28996.6
-529.93
-28732.5
-528.486
-28469.1
-526.94
-28206.5
-525.297
-27944.8
-523.56
-27684
-521.735
-27424.2
-519.825
-27165.3
-517.835
-26907.6
-515.768
-26650.8
-513.63
-26395.2
-511.422
-26140.8
-509.15
-25887.5
-506.816
-25635.4
-504.424
-25384.5
-501.977
-25134.9
-499.479
-24886.5
-496.933
-24639.5
-494.341
-24393.7
-491.707
-24149.4
-489.034
-23906.3
-486.324
-23664.7
-483.579
-23424.4
-480.804
-23185.6
-477.999
-22948.1
-475.168
-22712.1
-472.313
-22477.6
-469.436
-22244.5
-466.538
-22012.8
-463.623
-21782.6
-460.693
-21553.9
-457.748
-21326.7
-454.792
-21101
-451.825
-20876.7
-448.85
-20654
-445.869
-20432.7
-442.882
-20212.9
-439.892
-19994.7
-436.899
-19777.9
-433.906
-19562.7
-430.914
-19348.9
-427.923
-19136.6
-424.936
-18925.9
-421.954
-18716.6
-418.977
-18508.8
-416.007
-18302.5
-413.044
-18097.7
-410.091
-17894.3
-407.147
-17692.5
-404.214
-17492.1
-401.293
-17293.1
-398.384
-17095.6
-395.489
-16899.6
-392.607
-16704.9
-389.741
-16511.7
-386.89
-16320
-384.055
-16129.6
-381.237
-15940.7
-378.437
-15753.1
-375.654
-15566.9
-372.89
-15382.1
-370.145
-15198.7
-367.42
-15016.6
-364.715
-14835.9
-362.03
-14656.5
-359.366
-14478.5
-356.724
-14301.7
-354.103
-14126.3
-351.504
-13952.1
-348.928
-13779.2
-346.374
-13607.6
-343.843
-13437.3
-341.335
-13268.2
-338.851
-13100.3
-336.39
-12933.7
-333.953
-12768.3
-331.541
-12604
-329.152
-12441
-326.788
-12279.1
-324.449
-12118.4
-322.134
-11958.9
-319.844
-11800.4
-317.58
-11643.1
-315.34
-11487
-313.125
-11331.9
-310.936
-11177.9
-308.772
-11024.9
-306.634
-10873.1
-304.521
-10722.3
-302.433
-10572.5
-300.371
-10423.7
-298.334
-10276
-296.323
-10129.2
-294.338
-9983.44
-292.378
-9838.65
-290.444
-9694.81
-288.535
-9551.92
-286.652
-9409.96
-284.795
-9268.93
-282.963
-9128.8
-281.156
-8989.56
-279.375
-8851.21
-277.62
-8713.73
-275.89
-8577.1
-274.185
-8441.32
-272.505
-8306.37
-270.851
-8172.24
-269.222
-8038.92
-267.617
-7906.39
-266.038
-7774.64
-264.484
-7643.66
-262.955
-7513.44
-261.451
-7383.96
-259.971
-7255.22
-258.516
-7127.19
-257.086
-6999.87
-255.681
-6873.25
-254.299
-6747.3
-252.943
-6622.03
-251.61
-6497.42
-250.302
-6373.45
-249.018
-6250.12
-247.758
-6127.41
-246.521
-6005.3
-245.309
-5883.8
-244.121
-5762.88
-242.956
-5642.54
-241.815
-5522.76
-240.698
-5403.53
-239.604
-5284.85
-238.533
-5166.68
-237.486
-5049.04
-236.462
-4931.89
-235.461
-4815.24
-234.483
-4699.07
-233.529
-4583.38
-232.597
-4468.13
-231.688
-4353.34
-230.801
-4238.98
-229.938
-4125.04
-229.097
-4011.52
-228.278
-3898.39
-227.482
-3785.66
-226.709
-3673.31
-225.958
-3561.32
-225.229
-3449.69
-224.522
-3338.4
-223.837
-3227.45
-223.175
-3116.82
-222.534
-3006.51
-221.916
-2896.49
-221.319
-2786.76
-220.744
-2677.32
-220.191
-2568.14
-219.659
-2459.21
-219.15
-2350.54
-218.662
-2242.1
-218.195
-2133.88
-217.75
-2025.88
-217.326
-1918.08
-216.924
-1810.47
-216.544
-1703.04
-216.184
-1595.78
-215.846
-1488.69
-215.53
-1381.74
-215.234
-1274.93
-214.96
-1168.25
-214.707
-1061.68
-214.475
-955.223
-214.265
-848.859
-214.076
-742.58
-213.908
-636.375
-213.763
-530.231
-213.64
-424.138
-213.541
-318.082
-213.467
-212.05
-213.419
-106.029
-213.399
-213.408
-1079.39
3263.85
-2158.78
3264.05
-3237.37
3261.68
-4314.4
3256.83
-5389.14
3249.63
-6460.78
3239.8
-7528.47
3227.19
-8591.32
3211.54
-9648.4
3192.75
-10698.8
3170.72
-11741.5
3145.52
-12775.6
3117.33
-13800.4
3086.43
-14814.9
3053.12
-15818.4
3017.56
-16810.2
2979.75
-17789.4
2939.5
-18755.2
2896.59
-19706.5
2850.94
-20642.6
2802.61
-21562.4
2751.79
-22465.2
2698.66
-23350.2
2643.39
-24216.7
2586.18
-25063.9
2527.21
-25891.2
2466.75
-26698.1
2405.05
-27484.2
2342.4
-28249.1
2279.09
-28992.6
2215.37
-29714.6
2151.49
-30414.9
2087.64
-31093.6
2023.95
-31750.7
1960.57
-32386.3
1897.59
-33000.6
1835.1
-33593.8
1773.19
-34166
1711.9
-34717.6
1651.29
-35248.9
1591.4
-35760
1532.24
-36251.4
1473.81
-36723.3
1416.11
-37175.9
1359.12
-37609.6
1302.83
-38024.7
1247.25
-38421.3
1192.36
-38799.8
1138.17
-39160.4
1084.68
-39503.4
1031.88
-39829
979.789
-40137.4
928.394
-40428.9
877.701
-40703.8
827.713
-40962.3
778.437
-41204.6
729.88
-41430.9
682.051
-41641.6
634.96
-41836.8
588.62
-42016.8
543.04
-42182
498.233
-42332.4
454.21
-42468.5
410.981
-42590.4
368.555
-42698.5
326.942
-42793
286.15
-42874.2
246.186
-42942.3
207.054
-42997.7
168.761
-43040.7
131.31
-43071.4
94.7042
-43090.3
58.9451
-43097.5
24.0339
-43093.4
-10.0293
-43078.2
-43.2453
-43052.3
-75.6158
-43015.9
-107.143
-42969.2
-137.831
-42912.7
-167.683
-42846.4
-196.703
-42770.8
-224.898
-42686.1
-252.272
-42592.5
-278.834
-42490.4
-304.589
-42380
-329.545
-42261.5
-353.711
-42135.3
-377.096
-42001.5
-399.707
-41860.5
-421.556
-41712.5
-442.651
-41557.6
-463.003
-41396.3
-482.623
-41228.7
-501.521
-41055.1
-519.709
-40875.6
-537.198
-40690.5
-553.999
-40500.1
-570.126
-40304.6
-585.589
-40104.1
-600.402
-39898.9
-614.576
-39689.2
-628.124
-39475.3
-641.059
-39257.2
-653.394
-39035.2
-665.14
-38809.5
-676.312
-38580.3
-686.922
-38347.8
-696.982
-38112.1
-706.506
-37873.4
-715.506
-37631.9
-723.996
-37387.7
-731.987
-37141.1
-739.493
-36892.1
-746.526
-36641
-753.099
-36387.8
-759.224
-36132.7
-764.914
-35875.9
-770.18
-35617.5
-775.034
-35357.6
-779.49
-35096.4
-783.557
-34833.9
-787.248
-34570.4
-790.575
-34305.9
-793.548
-34040.5
-796.179
-33774.3
-798.478
-33507.5
-800.457
-33240.2
-802.126
-32972.4
-803.496
-32704.2
-804.575
-32435.8
-805.376
-32167.2
-805.906
-31898.6
-806.177
-31629.9
-806.197
-31361.4
-805.976
-31093
-805.522
-30824.8
-804.845
-30556.9
-803.953
-30289.4
-802.855
-30022.4
-801.558
-29755.8
-800.071
-29489.8
-798.402
-29224.4
-796.558
-28959.7
-794.546
-28695.8
-792.375
-28432.6
-790.051
-28170.2
-787.581
-27908.8
-784.971
-27648.2
-782.229
-27388.6
-779.361
-27130
-776.372
-26872.5
-773.269
-26616
-770.057
-26360.6
-766.743
-26106.4
-763.331
-25853.3
-759.827
-25601.5
-756.237
-25350.9
-752.565
-25101.5
-748.816
-24853.4
-744.994
-24606.6
-741.105
-24361.1
-737.153
-24117
-733.141
-23874.2
-729.075
-23632.8
-724.958
-23392.8
-720.793
-23154.2
-716.586
-22917.1
-712.339
-22681.3
-708.055
-22447
-703.739
-22214.2
-699.393
-21982.8
-695.02
-21752.9
-690.624
-21524.4
-686.208
-21297.5
-681.773
-21072
-677.324
-20848
-672.862
-20625.5
-668.39
-20404.5
-663.91
-20185.1
-659.426
-19967.1
-654.938
-19750.6
-650.449
-19535.6
-645.961
-19322.1
-641.477
-19110.1
-636.997
-18899.6
-632.524
-18690.6
-628.06
-18483
-623.606
-18277
-619.164
-18072.4
-614.735
-17869.3
-610.321
-17667.7
-605.923
-17467.6
-601.543
-17268.9
-597.181
-17071.6
-592.84
-16875.8
-588.519
-16681.5
-584.221
-16488.5
-579.947
-16297
-575.696
-16106.9
-571.471
-15918.2
-567.272
-15730.9
-563.1
-15545
-558.956
-15360.4
-554.841
-15177.2
-550.755
-14995.4
-546.699
-14814.9
-542.674
-14635.8
-538.68
-14458
-534.718
-14281.4
-530.789
-14106.2
-526.893
-13932.3
-523.03
-13759.7
-519.201
-13588.3
-515.407
-13418.2
-511.647
-13249.3
-507.923
-13081.7
-504.234
-12915.3
-500.581
-12750.1
-496.963
-12586.1
-493.383
-12423.3
-489.839
-12261.6
-486.332
-12101.1
-482.862
-11941.8
-479.429
-11783.6
-476.034
-11626.5
-472.676
-11470.5
-469.356
-11315.7
-466.075
-11161.9
-462.831
-11009.2
-459.625
-10857.5
-456.457
-10706.9
-453.327
-10557.3
-450.236
-10408.8
-447.183
-10261.3
-444.169
-10114.7
-441.192
-9969.15
-438.255
-9824.56
-435.355
-9680.93
-432.494
-9538.24
-429.671
-9396.48
-426.887
-9255.64
-424.141
-9115.71
-421.433
-8976.68
-418.763
-8838.52
-416.131
-8701.23
-413.538
-8564.8
-410.982
-8429.22
-408.464
-8294.46
-405.984
-8160.52
-403.542
-8027.39
-401.138
-7895.04
-398.771
-7763.48
-396.441
-7632.69
-394.149
-7502.66
-391.894
-7373.36
-389.676
-7244.8
-387.495
-7116.95
-385.351
-6989.82
-383.244
-6863.37
-381.174
-6737.61
-379.14
-6612.52
-377.143
-6488.08
-375.182
-6364.29
-373.257
-6241.14
-371.368
-6118.6
-369.515
-5996.67
-367.698
-5875.35
-365.917
-5754.6
-364.171
-5634.43
-362.461
-5514.82
-360.786
-5395.77
-359.146
-5277.25
-357.541
-5159.26
-355.971
-5041.78
-354.436
-4924.8
-352.936
-4808.32
-351.471
-4692.32
-350.039
-4576.78
-348.643
-4461.71
-347.28
-4347.08
-345.952
-4232.88
-344.657
-4119.11
-343.397
-4005.75
-342.17
-3892.79
-340.977
-3780.22
-339.817
-3668.02
-338.691
-3556.2
-337.599
-3444.73
-336.539
-3333.6
-335.513
-3222.81
-334.52
-3112.34
-333.56
-3002.18
-332.632
-2892.32
-331.738
-2782.75
-330.876
-2673.46
-330.047
-2564.44
-329.251
-2455.68
-328.487
-2347.16
-327.755
-2238.87
-327.056
-2130.81
-326.389
-2022.96
-325.754
-1915.32
-325.151
-1807.86
-324.58
-1700.59
-324.042
-1593.49
-323.535
-1486.54
-323.06
-1379.75
-322.618
-1273.09
-322.207
-1166.57
-321.828
-1060.15
-321.48
-953.849
-321.165
-847.638
-320.881
-741.512
-320.63
-635.46
-320.412
-529.469
-320.228
-423.528
-320.079
-317.625
-319.968
-211.745
-319.897
-105.875
-319.868
-319.881
-1068.13
4332.23
-2136.05
4332.2
-3203.1
4328.96
-4268.65
4322.61
-5332.03
4313.23
-6392.52
4300.52
-7449.4
4284.29
-8501.91
4264.26
-9549.27
4240.31
-10590.7
4212.33
-11625.4
4180.39
-12652.5
4144.66
-13671.4
4105.47
-14681.2
4063.09
-15681.1
4017.7
-16670.5
3969.27
-17648.4
3917.58
-18614
3862.39
-19566.5
3803.56
-20504.9
3741.15
-21428.3
3675.32
-22335.7
3606.29
-23226.4
3534.25
-24099.5
3459.41
-24954.1
3382.03
-25789.6
3302.4
-26605.2
3220.85
-27400.4
3137.75
-28174.6
3053.47
-28927.4
2968.37
-29658.5
2882.77
-30367.6
2796.96
-31054.6
2711.17
-31719.4
2625.62
-32362
2540.48
-32982.6
2455.93
-33581.3
2372.1
-34158.3
2289.11
-34713.8
2207.08
-35248.2
2126.07
-35761.8
2046.13
-36255
1967.29
-36728.2
1889.52
-37181.6
1812.83
-37615.7
1737.19
-38030.8
1662.59
-38427.2
1589.01
-38805.2
1516.46
-39165.2
1444.91
-39507.4
1374.35
-39832.1
1304.78
-40139.6
1236.18
-40430.2
1168.54
-40704
1101.87
-40961.5
1036.16
-41202.8
971.413
-41428.1
907.648
-41637.7
844.871
-41832
783.097
-42011
722.34
-42175.1
662.614
-42324.6
603.934
-42459.6
546.314
-42580.6
489.767
-42687.7
434.305
-42781.2
379.938
-42861.5
326.675
-42928.7
274.524
-42983.2
223.492
-43025.2
173.584
-43055
124.803
-43073
77.1518
-43079.3
30.6322
-43074.4
-14.7559
-43058.4
-59.0138
-43031.6
-102.144
-42994.3
-144.149
-42946.9
-185.034
-42889.5
-224.804
-42822.5
-263.465
-42746.2
-301.025
-42660.7
-337.491
-42566.5
-372.872
-42463.7
-407.179
-42352.6
-440.42
-42233.4
-472.607
-42106.6
-503.752
-41972.2
-533.867
-41830.6
-562.964
-41681.9
-591.056
-41526.6
-618.158
-41364.7
-644.283
-41196.6
-669.447
-41022.4
-693.664
-40842.5
-716.949
-40656.9
-739.318
-40466.1
-760.787
-40270.1
-781.372
-40069.2
-801.089
-39863.7
-819.956
-39653.6
-837.988
-39439.3
-855.203
-39220.9
-871.618
-38998.6
-887.249
-38772.6
-902.114
-38543.1
-916.231
-38310.3
-929.615
-38074.4
-942.285
-37835.4
-954.257
-37593.7
-965.548
-37349.4
-976.176
-37102.6
-986.157
-36853.4
-995.508
-36602.1
-1004.25
-36348.8
-1012.39
-36093.6
-1019.95
-35836.7
-1026.95
-35578.2
-1033.4
-35318.2
-1039.31
-35056.9
-1044.71
-34794.4
-1049.61
-34530.8
-1054.03
-34266.3
-1057.97
-34000.9
-1061.46
-33734.7
-1064.51
-33467.9
-1067.12
-33200.6
-1069.33
-32932.8
-1071.14
-32664.7
-1072.56
-32396.4
-1073.61
-32127.9
-1074.3
-31859.3
-1074.65
-31590.7
-1074.66
-31322.3
-1074.35
-31053.9
-1073.73
-30785.9
-1072.82
-30518.1
-1071.61
-30250.8
-1070.14
-29983.8
-1068.39
-29717.4
-1066.4
-29451.6
-1064.16
-29186.4
-1061.69
-28921.8
-1059
-28658
-1056.1
-28395
-1052.99
-28132.8
-1049.69
-27871.5
-1046.2
-27611.2
-1042.53
-27351.8
-1038.7
-27093.4
-1034.71
-26836
-1030.56
-26579.8
-1026.27
-26324.6
-1021.85
-26070.6
-1017.29
-25817.8
-1012.62
-25566.1
-1007.82
-25315.7
-1002.92
-25066.6
-997.92
-24818.7
-992.82
-24572.2
-987.631
-24327
-982.357
-24083.1
-977.005
-23840.6
-971.58
-23599.4
-966.087
-23359.7
-960.532
-23121.3
-954.92
-22884.4
-949.254
-22648.9
-943.541
-22414.9
-937.784
-22182.3
-931.988
-21951.2
-926.156
-21721.5
-920.294
-21493.3
-914.404
-21266.6
-908.491
-21041.4
-902.557
-20817.7
-896.608
-20595.5
-890.645
-20374.8
-884.672
-20155.5
-878.692
-19937.8
-872.709
-19721.6
-866.724
-19506.9
-860.741
-19293.6
-854.762
-19081.9
-848.79
-18871.7
-842.827
-18662.9
-836.876
-18455.7
-830.938
-18249.9
-825.016
-18045.6
-819.113
-17842.8
-813.228
-17641.4
-807.366
-17441.5
-801.527
-17243.1
-795.713
-17046.1
-789.926
-16850.6
-784.167
-16656.5
-778.438
-16463.8
-772.74
-16272.5
-767.075
-16082.7
-761.444
-15894.3
-755.847
-15707.2
-750.287
-15521.5
-744.763
-15337.3
-739.279
-15154.3
-733.833
-14972.8
-728.427
-14792.5
-723.063
-14613.6
-717.74
-14436.1
-712.46
-14259.8
-707.223
-14084.8
-702.031
-13911.2
-696.883
-13738.8
-691.78
-13567.7
-686.723
-13397.8
-681.713
-13229.2
-676.749
-13061.8
-671.833
-12895.6
-666.965
-12730.7
-662.145
-12566.9
-657.373
-12404.3
-652.65
-12242.9
-647.977
-12082.7
-643.353
-11923.6
-638.778
-11765.6
-634.254
-11608.7
-629.78
-11453
-625.356
-11298.4
-620.982
-11144.8
-616.66
-10992.3
-612.388
-10840.9
-608.166
-10690.5
-603.996
-10541.2
-599.877
-10392.8
-595.809
-10245.5
-591.792
-10099.2
-587.826
-9953.85
-583.912
-9809.48
-580.048
-9666.06
-576.236
-9523.59
-572.474
-9382.05
-568.764
-9241.42
-565.105
-9101.7
-561.497
-8962.88
-557.939
-8824.93
-554.433
-8687.85
-550.977
-8551.63
-547.571
-8416.25
-544.217
-8281.7
-540.912
-8147.96
-537.658
-8015.03
-534.454
-7882.89
-531.3
-7751.53
-528.197
-7620.94
-525.142
-7491.1
-522.138
-7362.01
-519.183
-7233.64
-516.277
-7105.99
-513.42
-6979.05
-510.613
-6852.8
-507.854
-6727.23
-505.144
-6602.33
-502.483
-6478.08
-499.87
-6354.48
-497.305
-6231.52
-494.789
-6109.17
-492.32
-5987.43
-489.899
-5866.29
-487.526
-5745.73
-485.2
-5625.75
-482.921
-5506.32
-480.689
-5387.45
-478.504
-5269.11
-476.366
-5151.3
-474.275
-5034
-472.229
-4917.21
-470.231
-4800.91
-468.278
-4685.08
-466.371
-4569.73
-464.51
-4454.83
-462.695
-4340.37
-460.925
-4226.35
-459.2
-4112.76
-457.52
-3999.57
-455.886
-3886.78
-454.296
-3774.39
-452.752
-3662.37
-451.251
-3550.71
-449.795
-3439.41
-448.384
-3328.46
-447.017
-3217.84
-445.693
-3107.54
-444.414
-2997.55
-443.179
-2887.86
-441.987
-2778.46
-440.839
-2669.34
-439.734
-2560.49
-438.673
-2451.89
-437.655
-2343.53
-436.68
-2235.42
-435.749
-2127.52
-434.86
-2019.84
-434.014
-1912.36
-433.211
-1805.07
-432.451
-1697.97
-431.733
-1591.03
-431.058
-1484.25
-430.426
-1377.62
-429.836
-1271.13
-429.288
-1164.77
-428.783
-1058.52
-428.32
-952.378
-427.9
-846.331
-427.522
-740.369
-427.187
-634.481
-426.896
-528.654
-426.651
-422.877
-426.453
-317.137
-426.305
-211.422
-426.211
-105.715
-426.173
-426.194
-1056.37
5388.75
-2112.39
5388.38
-3167.5
5384.23
-4221.14
5376.41
-5272.72
5364.96
-6321.61
5349.56
-7367.19
5330
-8408.8
5306.01
-9445.78
5277.43
-10477.5
5244.15
-11503.2
5206.24
-12522.3
5163.85
-13534
5117.3
-14537.7
5066.87
-15532.6
5012.71
-16518
4954.77
-17493.1
4892.79
-18457.2
4826.51
-19409.3
4755.76
-20348.6
4680.57
-21274.3
4601.07
-22185.4
4517.45
-23080.9
4429.92
-23960.1
4338.71
-24822.1
4244.07
-25665.9
4146.34
-26490.8
4045.88
-27296.1
3943.1
-28080.9
3838.44
-28844.7
3732.33
-29587
3625.2
-30307.3
3517.4
-31005.2
3409.27
-31680.5
3301.12
-32333
3193.24
-32962.8
3085.89
-33569.8
2979.31
-34154.2
2873.72
-34716.2
2769.31
-35256.1
2666.24
-35774.3
2564.59
-36271.2
2464.44
-36747.2
2365.78
-37202.7
2268.63
-37638.3
2172.97
-38054.2
2078.78
-38450.9
1986.03
-38828.9
1894.71
-39188.5
1804.78
-39530.1
1716.21
-39854
1628.97
-40160.6
1543.02
-40450.1
1458.35
-40722.9
1374.92
-40979.2
1292.72
-41219.3
1211.77
-41443.4
1132.04
-41651.9
1053.57
-41844.9
976.353
-42022.7
900.413
-42185.6
825.767
-42333.8
752.431
-42467.6
680.423
-42587.4
609.758
-42693.3
540.451
-42785.6
472.514
-42864.6
405.961
-42930.6
340.799
-42983.9
277.037
-43024.8
214.681
-43053.5
153.737
-43070.3
94.2065
-43075.5
36.0918
-43069.4
-20.6073
-43052.3
-75.8922
-43024.4
-129.766
-42986.1
-182.233
-42937.6
-233.298
-42879.2
-282.969
-42811.1
-331.252
-42733.8
-378.159
-42647.3
-423.697
-42552.1
-467.879
-42448.3
-510.717
-42336.3
-552.222
-42216.3
-592.41
-42088.5
-631.295
-41953.3
-668.891
-41810.8
-705.215
-41661.4
-740.283
-41505.2
-774.113
-41342.6
-806.722
-41173.7
-838.129
-40998.8
-868.352
-40818.1
-897.411
-40631.9
-925.325
-40440.4
-952.114
-40243.8
-977.799
-40042.3
-1002.4
-39836.1
-1025.94
-39625.5
-1048.43
-39410.6
-1069.9
-39191.6
-1090.38
-38968.8
-1109.87
-38742.3
-1128.41
-38512.4
-1146.01
-38279.1
-1162.7
-38042.8
-1178.49
-37803.4
-1193.42
-37561.3
-1207.49
-37316.6
-1220.73
-37069.4
-1233.17
-36820
-1244.82
-36568.3
-1255.7
-36314.7
-1265.84
-36059.3
-1275.26
-35802.1
-1283.97
-35543.4
-1292
-35283.2
-1299.36
-35021.7
-1306.07
-34759
-1312.17
-34495.2
-1317.65
-34230.5
-1322.55
-33965
-1326.88
-33698.7
-1330.66
-33431.8
-1333.9
-33164.4
-1336.63
-32896.5
-1338.86
-32628.4
-1340.62
-32359.9
-1341.9
-32091.4
-1342.74
-31822.8
-1343.15
-31554.2
-1343.14
-31285.7
-1342.73
-31017.4
-1341.93
-30749.4
-1340.77
-30481.7
-1339.24
-30214.3
-1337.38
-29947.4
-1335.18
-29681.1
-1332.67
-29415.3
-1329.85
-29150.2
-1326.75
-28885.7
-1323.37
-28622
-1319.72
-28359.1
-1315.82
-28097.1
-1311.68
-27835.9
-1307.3
-27575.7
-1302.71
-27316.4
-1297.9
-27058.1
-1292.9
-26800.9
-1287.71
-26544.8
-1282.34
-26289.8
-1276.79
-26036
-1271.09
-25783.3
-1265.23
-25531.9
-1259.23
-25281.7
-1253.1
-25032.7
-1246.84
-24785.1
-1240.45
-24538.7
-1233.96
-24293.7
-1227.36
-24050
-1220.66
-23807.7
-1213.88
-23566.7
-1207
-23327.2
-1200.05
-23089.1
-1193.03
-22852.4
-1185.95
-22617.1
-1178.8
-22383.3
-1171.6
-22151
-1164.35
-21920.1
-1157.06
-21690.6
-1149.73
-21462.7
-1142.36
-21236.3
-1134.97
-21011.3
-1127.55
-20787.8
-1120.11
-20565.8
-1112.66
-20345.4
-1105.19
-20126.4
-1097.71
-19908.9
-1090.23
-19692.9
-1082.75
-19478.4
-1075.27
-19265.5
-1067.8
-19054
-1060.33
-18844
-1052.88
-18635.5
-1045.44
-18428.5
-1038.02
-18223
-1030.62
-18018.9
-1023.24
-17816.4
-1015.88
-17615.3
-1008.55
-17415.6
-1001.26
-17217.5
-993.991
-17020.7
-986.758
-16825.5
-979.561
-16631.6
-972.401
-16439.2
-965.281
-16248.2
-958.201
-16058.6
-951.163
-15870.4
-944.17
-15683.6
-937.221
-15498.2
-930.319
-15314.2
-923.465
-15131.5
-916.661
-14950.2
-909.906
-14770.2
-903.203
-14591.5
-896.552
-14414.2
-889.954
-14238.2
-883.411
-14063.5
-876.923
-13890.1
-870.491
-13717.9
-864.115
-13547
-857.797
-13377.4
-851.537
-13209
-845.335
-13041.9
-839.193
-12876
-833.11
-12711.2
-827.088
-12547.7
-821.126
-12385.4
-815.226
-12224.2
-809.387
-12064.2
-803.61
-11905.3
-797.895
-11747.6
-792.242
-11590.9
-786.652
-11435.4
-781.126
-11281
-775.662
-11127.7
-770.261
-10975.4
-764.924
-10824.2
-759.651
-10674.1
-754.441
-10525
-749.295
-10376.8
-744.213
-10229.7
-739.195
-10083.6
-734.241
-9938.52
-729.35
-9794.36
-724.524
-9651.16
-719.761
-9508.9
-715.062
-9367.58
-710.427
-9227.16
-705.856
-9087.66
-701.349
-8949.04
-696.905
-8811.31
-692.524
-8674.44
-688.207
-8538.42
-683.953
-8403.24
-679.763
-8268.9
-675.635
-8135.37
-671.57
-8002.64
-667.568
-7870.7
-663.628
-7739.54
-659.751
-7609.15
-655.936
-7479.51
-652.182
-7350.61
-648.491
-7222.45
-644.861
-7094.99
-641.293
-6968.24
-637.786
-6842.19
-634.34
-6716.81
-630.955
-6592.1
-627.631
-6468.05
-624.367
-6344.64
-621.163
-6221.86
-618.02
-6099.7
-614.936
-5978.15
-611.912
-5857.2
-608.947
-5736.83
-606.042
-5617.03
-603.195
-5497.79
-600.408
-5379.1
-597.679
-5260.94
-595.008
-5143.31
-592.395
-5026.2
-589.841
-4909.59
-587.344
-4793.46
-584.905
-4677.82
-582.523
-4562.64
-580.199
-4447.92
-577.931
-4333.64
-575.72
-4219.8
-573.566
-4106.38
-571.468
-3993.37
-569.426
-3880.76
-567.441
-3768.53
-565.511
-3656.69
-563.637
-3545.21
-561.819
-3434.08
-560.056
-3323.3
-558.348
-3212.85
-556.695
-3102.72
-555.097
-2992.9
-553.554
-2883.38
-552.066
-2774.15
-550.632
-2665.2
-549.252
-2556.51
-547.926
-2448.08
-546.655
-2339.9
-545.437
-2231.95
-544.273
-2124.22
-543.163
-2016.71
-542.107
-1909.4
-541.104
-1802.27
-540.154
-1695.33
-539.258
-1588.56
-538.415
-1481.95
-537.625
-1375.49
-536.888
-1269.16
-536.204
-1162.96
-535.573
-1056.88
-534.995
-950.901
-534.47
-845.019
-533.998
-739.221
-533.58
-633.496
-533.216
-527.833
-532.91
-422.22
-532.662
-316.645
-532.478
-211.092
-532.361
-105.548
-532.314
-532.34
-1043.41
6432.24
-2086.36
6431.42
-3128.37
6426.31
-4168.94
6417.06
-5207.55
6403.65
-6243.67
6385.75
-7276.76
6363.15
-8306.26
6335.57
-9331.63
6302.86
-10352.3
6264.88
-11367.7
6221.69
-12377.3
6173.43
-13380.3
6120.4
-14376.3
6062.85
-15364.5
6000.92
-16344.2
5934.52
-17314.8
5863.4
-18275.5
5787.25
-19225.7
5705.88
-20164.3
5619.26
-21090.8
5527.5
-22004.1
5430.76
-22903.3
5329.22
-23787.7
5223.11
-24656.3
5112.69
-25508.2
4998.27
-26342.5
4880.22
-27158.3
4758.95
-27954.8
4634.93
-28731
4508.64
-29486.3
4380.57
-30219.9
4251.15
-30931.3
4120.82
-31620.1
3989.97
-32285.7
3859.01
-32927.9
3728.31
-33546.7
3598.24
-34141.9
3469.14
-34713.7
3341.34
-35262.3
3215.08
-35788.1
3090.58
-36291.4
2967.96
-36772.6
2847.29
-37232.4
2728.61
-37671.1
2611.93
-38089.3
2497.26
-38487.6
2384.56
-38866.4
2273.8
-39226.3
2164.93
-39567.7
2057.9
-39891.1
1952.64
-40196.9
1849.08
-40485.4
1747.15
-40757
1646.82
-41012.1
1548.04
-41250.8
1450.78
-41473.6
1355.05
-41680.6
1260.84
-41872.1
1168.16
-42048.5
1077.02
-42209.9
987.438
-42356.6
899.439
-42489
813.038
-42607.2
728.255
-42711.6
645.104
-42802.4