/*--------------------------------*- C++ -*----------------------------------*\
| =========                 |                                                 |
| \\      /  F ield         | OpenFOAM: The Open Source CFD Toolbox           |
|  \\    /   O peration     | Version:  2212                                  |
|   \\  /    A nd           | Website:  www.openfoam.com                      |
|    \\/     M anipulation  |                                                 |
\*---------------------------------------------------------------------------*/
FoamFile
{
    version     2.0;
    format      ascii;
    arch        "LSB;label=32;scalar=64";
    class       volScalarField;
    location    "470";
    object      p_rgh;
}
// * * * * * * * * * * * * * * * * * * * * * * * * * * * * * * * * * * * * * //

dimensions      [1 -1 -2 0 0 0 0];

internalField   nonuniform List<scalar> 
204800
(
34.6566
34.6453
34.6219
34.5872
34.5411
34.4844
34.4172
34.3401
34.2538
34.1586
34.0553
33.9444
33.8263
33.7015
33.5705
33.4337
33.2913
33.1438
32.9915
32.8347
32.6736
32.5085
32.3397
32.1674
31.992
31.8136
31.6325
31.4489
31.2631
31.0753
30.8857
30.6946
30.5021
30.3085
30.1139
29.9186
29.7227
29.5265
29.33
29.1336
28.9373
28.7414
28.546
28.3512
28.1573
27.9643
27.7724
27.5818
27.3926
27.2049
27.0189
26.8346
26.6522
26.4719
26.2937
26.1177
25.944
25.7728
25.6041
25.438
25.2745
25.1139
24.9561
24.8013
24.6494
24.5006
24.3549
24.2124
24.0731
23.937
23.8043
23.6749
23.549
23.4264
23.3073
23.1917
23.0796
22.971
22.8659
22.7644
22.6665
22.5721
22.4813
22.3941
22.3105
22.2304
22.1539
22.081
22.0116
21.9457
21.8833
21.8245
21.7691
21.7171
21.6686
21.6235
21.5818
21.5434
21.5083
21.4765
21.4479
21.4226
21.4004
21.3814
21.3654
21.3525
21.3426
21.3356
21.3316
21.3305
21.3322
21.3366
21.3438
21.3537
21.3663
21.3814
21.3991
21.4192
21.4418
21.4668
21.4942
21.5238
21.5557
21.5897
21.6259
21.6642
21.7046
21.7469
21.7912
21.8373
21.8853
21.9351
21.9866
22.0399
22.0947
22.1512
22.2091
22.2686
22.3296
22.3919
22.4556
22.5206
22.5868
22.6543
22.7229
22.7927
22.8636
22.9354
23.0083
23.0822
23.1569
23.2326
23.309
23.3863
23.4643
23.543
23.6224
23.7025
23.7831
23.8643
23.9461
24.0283
24.111
24.1942
24.2777
24.3617
24.4459
24.5305
24.6153
24.7004
24.7857
24.8712
24.9568
25.0426
25.1285
25.2145
25.3005
25.3866
25.4727
25.5587
25.6447
25.7307
25.8166
25.9023
25.988
26.0735
26.1588
26.2439
26.3289
26.4136
26.4981
26.5823
26.6663
26.7499
26.8333
26.9163
26.999
27.0813
27.1633
27.2449
27.3261
27.4069
27.4873
27.5672
27.6467
27.7258
27.8043
27.8824
27.96
28.0371
28.1137
28.1898
28.2654
28.3404
28.4149
28.4888
28.5621
28.6349
28.7071
28.7787
28.8498
28.9202
28.99
29.0592
29.1278
29.1958
29.2631
29.3298
29.3959
29.4613
29.5261
29.5902
29.6537
29.7165
29.7786
29.8401
29.9008
29.9609
30.0204
30.0791
30.1372
30.1945
30.2512
30.3072
30.3625
30.417
30.4709
30.5241
30.5765
30.6283
30.6793
30.7296
30.7793
30.8282
30.8763
30.9238
30.9705
31.0166
31.0619
31.1064
31.1503
31.1934
31.2358
31.2775
31.3184
31.3586
31.3981
31.4369
31.4749
31.5122
31.5488
31.5846
31.6197
31.6541
31.6877
31.7207
31.7528
31.7843
31.815
31.845
31.8742
31.9027
31.9305
31.9576
31.9839
32.0094
32.0343
32.0584
32.0818
32.1045
32.1264
32.1476
32.168
32.1877
32.2067
32.225
32.2425
32.2593
32.2754
32.2907
32.3053
32.3192
32.3323
32.3447
32.3564
32.3674
32.3776
32.3871
32.3958
32.4038
32.4111
32.4177
32.4236
32.4287
32.433
32.4367
32.4396
32.4418
32.4433
32.444
34.6267
34.6135
34.5871
34.5484
34.4979
34.4366
34.3651
34.2844
34.1949
34.0973
33.992
33.8797
33.7605
33.6351
33.5036
33.3665
33.224
33.0765
32.9243
32.7675
32.6066
32.4417
32.2731
32.1011
31.9259
31.7478
31.567
31.3837
31.1982
31.0107
30.8215
30.6307
30.4385
30.2452
30.051
29.856
29.6605
29.4646
29.2685
29.0724
28.8765
28.681
28.4859
28.2915
28.0979
27.9053
27.7138
27.5235
27.3347
27.1473
26.9616
26.7777
26.5957
26.4157
26.2378
26.0622
25.8888
25.7179
25.5495
25.3838
25.2207
25.0604
24.9029
24.7484
24.5968
24.4483
24.3029
24.1606
24.0216
23.8858
23.7534
23.6243
23.4986
23.3763
23.2574
23.142
23.0302
22.9218
22.817
22.7157
22.618
22.5238
22.4332
22.3462
22.2627
22.1828
22.1065
22.0337
21.9645
21.8988
21.8366
21.7778
21.7226
21.6708
21.6224
21.5774
21.5358
21.4975
21.4625
21.4308
21.4023
21.377
21.3549
21.336
21.3201
21.3072
21.2974
21.2905
21.2865
21.2854
21.2871
21.2916
21.2988
21.3087
21.3213
21.3364
21.3541
21.3742
21.3968
21.4218
21.4491
21.4787
21.5106
21.5446
21.5808
21.619
21.6593
21.7016
21.7458
21.7919
21.8399
21.8896
21.941
21.9942
22.049
22.1053
22.1632
22.2226
22.2835
22.3457
22.4093
22.4742
22.5404
22.6078
22.6763
22.746
22.8167
22.8885
22.9612
23.035
23.1096
23.1851
23.2615
23.3386
23.4165
23.4951
23.5743
23.6543
23.7348
23.8159
23.8975
23.9796
24.0622
24.1452
24.2286
24.3124
24.3965
24.4809
24.5656
24.6505
24.7357
24.821
24.9065
24.9922
25.0779
25.1638
25.2496
25.3356
25.4215
25.5074
25.5933
25.6791
25.7648
25.8504
25.9359
26.0213
26.1064
26.1914
26.2762
26.3608
26.4451
26.5292
26.613
26.6965
26.7797
26.8626
26.9452
27.0274
27.1092
27.1906
27.2717
27.3523
27.4326
27.5124
27.5917
27.6706
27.7491
27.827
27.9045
27.9815
28.0579
28.1339
28.2093
28.2841
28.3585
28.4323
28.5055
28.5781
28.6502
28.7217
28.7926
28.8629
28.9326
29.0017
29.0701
29.138
29.2052
29.2718
29.3377
29.403
29.4677
29.5317
29.595
29.6577
29.7197
29.7811
29.8417
29.9017
29.961
30.0197
30.0776
30.1349
30.1914
30.2473
30.3025
30.357
30.4107
30.4638
30.5162
30.5678
30.6188
30.669
30.7185
30.7673
30.8154
30.8628
30.9095
30.9554
31.0006
31.0451
31.0889
31.1319
31.1742
31.2158
31.2567
31.2968
31.3362
31.3749
31.4129
31.4501
31.4866
31.5224
31.5574
31.5917
31.6253
31.6582
31.6903
31.7217
31.7523
31.7822
31.8114
31.8399
31.8676
31.8946
31.9209
31.9464
31.9712
31.9953
32.0186
32.0412
32.0631
32.0843
32.1047
32.1244
32.1433
32.1615
32.179
32.1958
32.2118
32.2271
32.2417
32.2556
32.2687
32.2811
32.2927
32.3036
32.3138
32.3233
32.332
32.3401
32.3473
32.3539
32.3597
32.3648
32.3692
32.3728
32.3758
32.3779
32.3794
32.3801
34.6096
34.5965
34.5703
34.5318
34.4816
34.4205
34.3492
34.2686
34.1791
34.0815
33.9762
33.8637
33.7444
33.6188
33.4872
33.3499
33.2073
33.0597
32.9073
32.7504
32.5893
32.4243
32.2556
32.0835
31.9083
31.7301
31.5492
31.3659
31.1804
30.9928
30.8035
30.6127
30.4205
30.2272
30.033
29.838
29.6424
29.4466
29.2505
29.0544
28.8585
28.663
28.468
28.2736
28.08
27.8874
27.6959
27.5057
27.3169
27.1296
26.9439
26.7601
26.5781
26.3981
26.2203
26.0447
25.8714
25.7006
25.5322
25.3665
25.2035
25.0432
24.8858
24.7313
24.5798
24.4314
24.286
24.1439
24.0049
23.8692
23.7368
23.6078
23.4821
23.3599
23.2411
23.1258
23.014
22.9057
22.8009
22.6997
22.6021
22.508
22.4175
22.3305
22.2471
22.1673
22.0911
22.0184
21.9492
21.8836
21.8214
21.7628
21.7076
21.6559
21.6075
21.5626
21.5211
21.4829
21.4479
21.4163
21.3879
21.3627
21.3407
21.3218
21.3059
21.2931
21.2834
21.2765
21.2726
21.2716
21.2734
21.2779
21.2852
21.2952
21.3078
21.323
21.3407
21.3609
21.3836
21.4086
21.436
21.4657
21.4976
21.5317
21.5679
21.6062
21.6466
21.6889
21.7332
21.7793
21.8273
21.8771
21.9286
21.9818
22.0366
22.093
22.151
22.2104
22.2713
22.3336
22.3972
22.4622
22.5283
22.5958
22.6643
22.734
22.8048
22.8766
22.9494
23.0232
23.0978
23.1734
23.2497
23.3269
23.4048
23.4834
23.5627
23.6427
23.7232
23.8043
23.886
23.9681
24.0507
24.1337
24.2172
24.301
24.3851
24.4695
24.5542
24.6392
24.7243
24.8097
24.8952
24.9809
25.0666
25.1525
25.2384
25.3243
25.4102
25.4961
25.582
25.6678
25.7536
25.8392
25.9247
26.01
26.0952
26.1802
26.265
26.3496
26.4339
26.518
26.6018
26.6853
26.7685
26.8514
26.9339
27.0161
27.098
27.1794
27.2605
27.3411
27.4213
27.5011
27.5805
27.6594
27.7378
27.8158
27.8932
27.9702
28.0466
28.1226
28.198
28.2729
28.3472
28.421
28.4942
28.5668
28.6389
28.7104
28.7812
28.8515
28.9212
28.9903
29.0588
29.1266
29.1938
29.2604
29.3263
29.3916
29.4562
29.5202
29.5836
29.6462
29.7082
29.7696
29.8302
29.8902
29.9495
30.0082
30.0661
30.1233
30.1799
30.2358
30.2909
30.3454
30.3992
30.4522
30.5046
30.5562
30.6072
30.6574
30.7069
30.7557
30.8038
30.8511
30.8978
30.9437
30.9889
31.0334
31.0771
31.1202
31.1625
31.2041
31.2449
31.2851
31.3245
31.3632
31.4011
31.4383
31.4748
31.5106
31.5456
31.5799
31.6135
31.6463
31.6784
31.7098
31.7405
31.7704
31.7996
31.828
31.8557
31.8827
31.909
31.9345
31.9593
31.9834
32.0067
32.0293
32.0512
32.0723
32.0927
32.1124
32.1314
32.1496
32.1671
32.1838
32.1999
32.2152
32.2297
32.2436
32.2567
32.2691
32.2807
32.2917
32.3019
32.3113
32.3201
32.3281
32.3354
32.3419
32.3477
32.3528
32.3572
32.3608
32.3638
32.3659
32.3674
32.3681
34.5676
34.5539
34.5266
34.4865
34.4344
34.3714
34.2981
34.2155
34.1243
34.0251
33.9185
33.8049
33.6847
33.5583
33.4261
33.2883
33.1453
32.9974
32.8448
32.6878
32.5267
32.3616
32.193
32.0209
31.8457
31.6676
31.4868
31.3036
31.1182
30.9308
30.7417
30.5511
30.3591
30.1659
29.9719
29.7771
29.5818
29.3862
29.1903
28.9945
28.7989
28.6036
28.4088
28.2147
28.0214
27.829
27.6378
27.4479
27.2593
27.0723
26.8869
26.7033
26.5216
26.3419
26.1643
25.989
25.816
25.6454
25.4774
25.3119
25.1492
24.9892
24.832
24.6778
24.5266
24.3784
24.2333
24.0914
23.9527
23.8172
23.6851
23.5563
23.4309
23.3089
23.1904
23.0753
22.9637
22.8557
22.7511
22.6502
22.5527
22.4588
22.3685
22.2818
22.1986
22.119
22.043
21.9704
21.9015
21.836
21.7741
21.7156
21.6606
21.609
21.5609
21.5161
21.4747
21.4367
21.4019
21.3704
21.3421
21.3171
21.2952
21.2764
21.2607
21.248
21.2384
21.2317
21.2279
21.2269
21.2288
21.2335
21.2408
21.2509
21.2636
21.2789
21.2967
21.3169
21.3397
21.3648
21.3922
21.4219
21.4539
21.488
21.5243
21.5627
21.603
21.6454
21.6897
21.7359
21.7839
21.8337
21.8852
21.9384
21.9933
22.0497
22.1076
22.1671
22.228
22.2903
22.3539
22.4188
22.485
22.5524
22.6209
22.6906
22.7614
22.8331
22.9059
22.9796
23.0543
23.1298
23.2061
23.2832
23.3611
23.4397
23.5189
23.5988
23.6793
23.7603
23.8419
23.924
24.0066
24.0895
24.1729
24.2566
24.3407
24.4251
24.5097
24.5946
24.6797
24.765
24.8504
24.936
25.0217
25.1074
25.1932
25.2791
25.3649
25.4508
25.5366
25.6223
25.7079
25.7935
25.8789
25.9642
26.0493
26.1342
26.2189
26.3034
26.3876
26.4716
26.5553
26.6387
26.7219
26.8047
26.8871
26.9692
27.0509
27.1323
27.2133
27.2938
27.374
27.4537
27.5329
27.6117
27.6901
27.7679
27.8453
27.9222
27.9985
28.0744
28.1497
28.2245
28.2987
28.3724
28.4455
28.5181
28.59
28.6614
28.7322
28.8024
28.872
28.941
29.0094
29.0771
29.1443
29.2108
29.2766
29.3418
29.4064
29.4703
29.5335
29.5961
29.658
29.7193
29.7799
29.8398
29.899
29.9576
30.0154
30.0726
30.1291
30.1849
30.24
30.2944
30.348
30.401
30.4533
30.5049
30.5558
30.6059
30.6554
30.7041
30.7521
30.7994
30.846
30.8918
30.937
30.9814
31.0251
31.0681
31.1103
31.1519
31.1927
31.2327
31.2721
31.3107
31.3486
31.3858
31.4222
31.4579
31.4929
31.5272
31.5607
31.5935
31.6255
31.6569
31.6875
31.7174
31.7465
31.7749
31.8026
31.8296
31.8558
31.8813
31.906
31.9301
31.9534
31.9759
31.9978
32.0189
32.0393
32.0589
32.0778
32.096
32.1135
32.1302
32.1462
32.1615
32.1761
32.1899
32.203
32.2154
32.227
32.2379
32.2481
32.2575
32.2663
32.2743
32.2815
32.2881
32.2939
32.299
32.3033
32.307
32.3099
32.3121
32.3135
32.3143
34.5369
34.5234
34.4965
34.4569
34.4054
34.3428
34.2699
34.1877
34.0966
33.9975
33.8908
33.777
33.6566
33.53
33.3975
33.2595
33.1162
32.968
32.8152
32.6579
32.4965
32.3312
32.1623
31.9901
31.8147
31.6364
31.4555
31.2722
31.0867
30.8992
30.71
30.5193
30.3272
30.1341
29.94
29.7452
29.5498
29.3541
29.1583
28.9625
28.7668
28.5715
28.3768
28.1827
27.9894
27.7971
27.6059
27.416
27.2275
27.0405
26.8552
26.6717
26.49
26.3104
26.1329
25.9576
25.7847
25.6142
25.4463
25.2809
25.1182
24.9583
24.8013
24.6472
24.496
24.3479
24.203
24.0612
23.9226
23.7872
23.6552
23.5266
23.4013
23.2794
23.161
23.046
22.9346
22.8267
22.7223
22.6214
22.5241
22.4304
22.3402
22.2536
22.1706
22.0911
22.0152
21.9428
21.874
21.8086
21.7468
21.6885
21.6336
21.5822
21.5342
21.4896
21.4483
21.4104
21.3758
21.3444
21.3163
21.2914
21.2696
21.251
21.2354
21.2229
21.2134
21.2068
21.2031
21.2023
21.2043
21.2091
21.2166
21.2268
21.2397
21.2551
21.273
21.2934
21.3162
21.3415
21.369
21.3989
21.431
21.4652
21.5016
21.5401
21.5806
21.623
21.6675
21.7137
21.7619
21.8118
21.8634
21.9167
21.9716
22.0281
22.0862
22.1457
22.2067
22.2691
22.3328
22.3978
22.4641
22.5316
22.6002
22.6699
22.7408
22.8126
22.8855
22.9593
23.034
23.1096
23.186
23.2631
23.3411
23.4197
23.499
23.579
23.6595
23.7406
23.8223
23.9044
23.987
24.07
24.1534
24.2372
24.3213
24.4057
24.4904
24.5753
24.6605
24.7458
24.8313
24.9169
25.0026
25.0884
25.1743
25.2601
25.346
25.4319
25.5177
25.6035
25.6891
25.7747
25.8601
25.9454
26.0305
26.1155
26.2002
26.2847
26.369
26.453
26.5367
26.6201
26.7033
26.7861
26.8685
26.9506
27.0324
27.1137
27.1947
27.2753
27.3554
27.4351
27.5144
27.5932
27.6715
27.7494
27.8268
27.9036
27.98
28.0558
28.1312
28.2059
28.2802
28.3538
28.427
28.4995
28.5715
28.6429
28.7137
28.7839
28.8535
28.9224
28.9908
29.0586
29.1257
29.1922
29.258
29.3232
29.3877
29.4516
29.5149
29.5775
29.6394
29.7006
29.7612
29.8211
29.8803
29.9389
29.9967
30.0539
30.1103
30.1661
30.2212
30.2756
30.3293
30.3822
30.4345
30.4861
30.5369
30.5871
30.6365
30.6852
30.7332
30.7805
30.8271
30.8729
30.9181
30.9625
31.0062
31.0491
31.0914
31.1329
31.1737
31.2138
31.2531
31.2917
31.3296
31.3668
31.4032
31.4389
31.4739
31.5081
31.5416
31.5744
31.6064
31.6378
31.6684
31.6982
31.7274
31.7558
31.7834
31.8104
31.8366
31.8621
31.8868
31.9109
31.9342
31.9567
31.9786
31.9997
32.02
32.0397
32.0586
32.0768
32.0943
32.111
32.127
32.1423
32.1568
32.1706
32.1837
32.1961
32.2077
32.2186
32.2288
32.2382
32.247
32.255
32.2622
32.2688
32.2746
32.2797
32.284
32.2877
32.2906
32.2928
32.2942
32.2949
34.4869
34.4733
34.4461
34.4061
34.354
34.2907
34.2171
34.134
34.0421
33.942
33.8345
33.7199
33.5987
33.4714
33.3383
33.1997
33.056
32.9073
32.7541
32.5965
32.4349
32.2694
32.1003
31.9279
31.7524
31.5741
31.3931
31.2098
31.0243
30.8368
30.6477
30.457
30.265
30.0719
29.8779
29.6832
29.488
29.2924
29.0967
28.901
28.7055
28.5104
28.3158
28.1219
27.9288
27.7367
27.5457
27.356
27.1676
26.9809
26.7958
26.6124
26.431
26.2516
26.0743
25.8993
25.7266
25.5563
25.3886
25.2235
25.061
24.9014
24.7446
24.5907
24.4398
24.292
24.1472
24.0057
23.8673
23.7323
23.6005
23.4721
23.347
23.2254
23.1072
22.9925
22.8813
22.7736
22.6695
22.5688
22.4718
22.3783
22.2884
22.202
22.1192
22.0399
21.9643
21.8921
21.8235
21.7584
21.6968
21.6387
21.584
21.5328
21.4851
21.4406
21.3996
21.3619
21.3275
21.2963
21.2684
21.2437
21.2221
21.2037
21.1883
21.1759
21.1666
21.1602
21.1567
21.1561
21.1582
21.1632
21.1709
21.1812
21.1942
21.2098
21.2278
21.2484
21.2714
21.2967
21.3244
21.3544
21.3866
21.421
21.4575
21.4961
21.5367
21.5793
21.6238
21.6702
21.7184
21.7684
21.8202
21.8736
21.9286
21.9852
22.0433
22.1029
22.164
22.2264
22.2902
22.3553
22.4216
22.4892
22.5579
22.6277
22.6986
22.7705
22.8434
22.9172
22.9919
23.0676
23.144
23.2212
23.2992
23.3778
23.4572
23.5371
23.6177
23.6988
23.7805
23.8626
23.9452
24.0283
24.1117
24.1955
24.2796
24.364
24.4487
24.5336
24.6187
24.704
24.7895
24.8751
24.9608
25.0466
25.1324
25.2183
25.3041
25.39
25.4758
25.5615
25.6471
25.7327
25.8181
25.9033
25.9884
26.0733
26.158
26.2425
26.3267
26.4107
26.4944
26.5778
26.6608
26.7436
26.826
26.9081
26.9898
27.0711
27.152
27.2325
27.3126
27.3923
27.4715
27.5503
27.6286
27.7064
27.7837
27.8605
27.9368
28.0126
28.0879
28.1626
28.2368
28.3104
28.3835
28.456
28.5279
28.5992
28.67
28.7401
28.8096
28.8786
28.9469
29.0146
29.0816
29.1481
29.2139
29.279
29.3435
29.4073
29.4705
29.5331
29.5949
29.6561
29.7166
29.7765
29.8356
29.8941
29.9519
30.009
30.0655
30.1212
30.1762
30.2305
30.2842
30.3371
30.3893
30.4408
30.4916
30.5417
30.5911
30.6398
30.6878
30.735
30.7815
30.8273
30.8724
30.9168
30.9604
31.0034
31.0455
31.087
31.1278
31.1678
31.2071
31.2457
31.2835
31.3206
31.357
31.3927
31.4276
31.4618
31.4953
31.5281
31.5601
31.5914
31.6219
31.6518
31.6809
31.7093
31.7369
31.7638
31.79
31.8155
31.8402
31.8642
31.8875
31.91
31.9318
31.9529
31.9732
31.9929
32.0118
32.0299
32.0474
32.0641
32.0801
32.0953
32.1099
32.1237
32.1367
32.1491
32.1607
32.1716
32.1818
32.1912
32.1999
32.2079
32.2152
32.2217
32.2275
32.2326
32.2369
32.2406
32.2435
32.2457
32.2471
32.2478
34.4455
34.4322
34.4054
34.366
34.3144
34.2518
34.1787
34.096
34.0043
33.9044
33.7968
33.6821
33.5607
33.4331
33.2997
33.1607
33.0166
32.8676
32.714
32.556
32.394
32.2282
32.0588
31.8861
31.7104
31.5318
31.3506
31.1671
30.9814
30.7938
30.6045
30.4137
30.2215
30.0284
29.8343
29.6395
29.4442
29.2486
29.0529
28.8571
28.6616
28.4665
28.2719
28.078
27.8849
27.6928
27.5018
27.3122
27.1239
26.9372
26.7521
26.5688
26.3875
26.2082
26.031
25.856
25.6834
25.5133
25.3456
25.1806
25.0183
24.8588
24.7021
24.5484
24.3976
24.2499
24.1053
23.9639
23.8257
23.6908
23.5591
23.4309
23.306
23.1846
23.0665
22.952
22.841
22.7335
22.6295
22.5291
22.4322
22.3389
22.2491
22.163
22.0804
22.0013
21.9258
21.8539
21.7855
21.7206
21.6592
21.6013
21.5468
21.4958
21.4482
21.404
21.3632
21.3257
21.2915
21.2605
21.2328
21.2083
21.1869
21.1687
21.1535
21.1414
21.1322
21.126
21.1228
21.1223
21.1247
21.1299
21.1377
21.1483
21.1615
21.1772
21.1955
21.2162
21.2394
21.265
21.2929
21.323
21.3554
21.39
21.4267
21.4654
21.5062
21.549
21.5937
21.6402
21.6886
21.7388
21.7907
21.8442
21.8994
21.9562
22.0145
22.0742
22.1354
22.198
22.262
22.3272
22.3937
22.4613
22.5302
22.6001
22.6711
22.7431
22.8162
22.8901
22.965
23.0407
23.1173
23.1946
23.2727
23.3514
23.4309
23.511
23.5916
23.6728
23.7546
23.8368
23.9195
24.0026
24.0862
24.17
24.2542
24.3387
24.4235
24.5085
24.5937
24.679
24.7646
24.8503
24.936
25.0219
25.1077
25.1937
25.2796
25.3655
25.4513
25.5371
25.6228
25.7084
25.7938
25.8791
25.9643
26.0492
26.1339
26.2185
26.3027
26.3867
26.4704
26.5539
26.637
26.7198
26.8022
26.8843
26.966
27.0474
27.1283
27.2089
27.289
27.3687
27.4479
27.5267
27.605
27.6828
27.7601
27.837
27.9133
27.9891
28.0644
28.1391
28.2133
28.2869
28.36
28.4325
28.5044
28.5758
28.6465
28.7167
28.7862
28.8551
28.9234
28.9911
29.0582
29.1246
29.1904
29.2555
29.32
29.3839
29.4471
29.5096
29.5715
29.6326
29.6932
29.753
29.8122
29.8706
29.9284
29.9855
30.0419
30.0977
30.1527
30.207
30.2606
30.3136
30.3658
30.4173
30.4681
30.5182
30.5675
30.6162
30.6641
30.7114
30.7579
30.8037
30.8488
30.8931
30.9368
30.9797
31.0219
31.0633
31.1041
31.1441
31.1834
31.2219
31.2598
31.2969
31.3333
31.3689
31.4039
31.4381
31.4715
31.5043
31.5363
31.5676
31.5981
31.6279
31.657
31.6854
31.713
31.7399
31.7661
31.7916
31.8163
31.8403
31.8635
31.8861
31.9079
31.929
31.9493
31.9689
31.9878
32.006
32.0234
32.0401
32.0561
32.0713
32.0859
32.0997
32.1127
32.1251
32.1367
32.1476
32.1578
32.1672
32.1759
32.1839
32.1911
32.1977
32.2035
32.2086
32.2129
32.2166
32.2195
32.2216
32.2231
32.2238
34.3895
34.3762
34.3495
34.3101
34.2586
34.1959
34.1226
34.0396
33.9476
33.8472
33.7391
33.6239
33.5019
33.3737
33.2396
33.1001
32.9554
32.8059
32.6518
32.4935
32.3311
32.1649
31.9952
31.8223
31.6463
31.4675
31.2861
31.1025
30.9166
30.7289
30.5395
30.3487
30.1565
29.9633
29.7692
29.5744
29.3792
29.1836
28.9879
28.7923
28.5968
28.4018
28.2072
28.0134
27.8205
27.6285
27.4377
27.2481
27.06
26.8734
26.6885
26.5054
26.3243
26.1451
25.9681
25.7934
25.621
25.451
25.2836
25.1188
24.9567
24.7974
24.6409
24.4874
24.3368
24.1894
24.045
23.9038
23.7659
23.6312
23.4998
23.3718
23.2472
23.126
23.0082
22.894
22.7832
22.676
22.5722
22.4721
22.3755
22.2824
22.1929
22.107
22.0247
21.9459
21.8707
21.799
21.7308
21.6662
21.6051
21.5475
21.4933
21.4425
21.3952
21.3513
21.3107
21.2735
21.2395
21.2088
21.1814
21.1571
21.136
21.118
21.1031
21.0912
21.0823
21.0764
21.0733
21.0731
21.0757
21.0811
21.0892
21.1
21.1134
21.1294
21.1479
21.1689
21.1922
21.218
21.2461
21.2765
21.3091
21.3438
21.3807
21.4197
21.4607
21.5036
21.5485
21.5952
21.6438
21.6941
21.7462
21.7999
21.8553
21.9122
21.9706
22.0306
22.0919
22.1547
22.2187
22.2841
22.3507
22.4185
22.4875
22.5575
22.6287
22.7008
22.7739
22.848
22.923
22.9988
23.0755
23.1529
23.2311
23.3099
23.3895
23.4696
23.5504
23.6317
23.7135
23.7958
23.8786
23.9618
24.0454
24.1293
24.2135
24.2981
24.3829
24.468
24.5532
24.6386
24.7242
24.8099
24.8957
24.9816
25.0675
25.1535
25.2394
25.3254
25.4112
25.4971
25.5828
25.6684
25.7538
25.8392
25.9243
26.0093
26.094
26.1785
26.2628
26.3468
26.4305
26.514
26.5971
26.6799
26.7623
26.8444
26.9261
27.0075
27.0884
27.1689
27.249
27.3287
27.4079
27.4867
27.565
27.6428
27.7201
27.7969
27.8732
27.949
28.0243
28.099
28.1732
28.2468
28.3198
28.3923
28.4642
28.5355
28.6062
28.6764
28.7459
28.8148
28.8831
28.9507
29.0178
29.0842
29.1499
29.215
29.2795
29.3433
29.4065
29.469
29.5308
29.5919
29.6524
29.7122
29.7714
29.8298
29.8876
29.9446
30.001
30.0567
30.1117
30.166
30.2196
30.2725
30.3246
30.3761
30.4269
30.477
30.5263
30.5749
30.6228
30.67
30.7165
30.7623
30.8073
30.8517
30.8953
30.9382
30.9803
31.0218
31.0625
31.1025
31.1417
31.1803
31.2181
31.2552
31.2915
31.3271
31.362
31.3962
31.4297
31.4624
31.4944
31.5256
31.5562
31.586
31.615
31.6434
31.671
31.6979
31.724
31.7495
31.7742
31.7981
31.8214
31.8439
31.8657
31.8867
31.9071
31.9267
31.9455
31.9637
31.9811
31.9978
32.0138
32.029
32.0435
32.0573
32.0704
32.0827
32.0943
32.1052
32.1154
32.1248
32.1335
32.1415
32.1487
32.1552
32.161
32.1661
32.1705
32.1741
32.177
32.1792
32.1806
32.1814
34.3393
34.3262
34.2999
34.2611
34.2102
34.1481
34.0753
33.9927
33.901
33.8008
33.6927
33.5773
33.4551
33.3266
33.1922
33.0522
32.9071
32.7571
32.6026
32.4438
32.281
32.1144
31.9443
31.771
31.5946
31.4155
31.2339
31.0499
30.8639
30.6759
30.4863
30.2953
30.1029
29.9096
29.7153
29.5205
29.3251
29.1294
28.9337
28.7379
28.5425
28.3474
28.1528
27.959
27.766
27.574
27.3832
27.1937
27.0056
26.8191
26.6343
26.4512
26.2701
26.0911
25.9142
25.7395
25.5672
25.3974
25.23
25.0654
24.9034
24.7442
24.5879
24.4345
24.2842
24.1369
23.9927
23.8517
23.7139
23.5794
23.4482
23.3204
23.196
23.075
22.9575
22.8434
22.7329
22.6258
22.5223
22.4224
22.326
22.2332
22.144
22.0583
21.9762
21.8977
21.8227
21.7513
21.6834
21.619
21.5582
21.5008
21.4469
21.3964
21.3494
21.3057
21.2654
21.2284
21.1948
21.1643
21.1372
21.1132
21.0923
21.0746
21.06
21.0483
21.0397
21.034
21.0313
21.0314
21.0343
21.0399
21.0483
21.0593
21.073
21.0892
21.108
21.1292
21.1529
21.1789
21.2072
21.2379
21.2707
21.3057
21.3429
21.3821
21.4233
21.4665
21.5116
21.5586
21.6074
21.6579
21.7102
21.7642
21.8197
21.8769
21.9355
21.9957
22.0572
22.1202
22.1845
22.25
22.3168
22.3848
22.454
22.5242
22.5955
22.6679
22.7412
22.8154
22.8906
22.9666
23.0434
23.121
23.1993
23.2783
23.358
23.4383
23.5192
23.6007
23.6827
23.7651
23.848
23.9313
24.015
24.0991
24.1835
24.2681
24.3531
24.4382
24.5236
24.6091
24.6948
24.7806
24.8665
24.9525
25.0385
25.1246
25.2106
25.2966
25.3826
25.4685
25.5543
25.64
25.7255
25.8109
25.8961
25.9812
26.066
26.1505
26.2349
26.3189
26.4027
26.4862
26.5694
26.6522
26.7347
26.8169
26.8986
26.98
27.061
27.1416
27.2217
27.3014
27.3807
27.4595
27.5378
27.6157
27.693
27.7699
27.8462
27.922
27.9973
28.072
28.1462
28.2199
28.2929
28.3654
28.4373
28.5087
28.5794
28.6495
28.7191
28.788
28.8563
28.924
28.991
29.0574
29.1232
29.1883
29.2528
29.3166
29.3798
29.4423
29.5041
29.5653
29.6257
29.6856
29.7447
29.8031
29.8609
29.918
29.9743
30.03
30.085
30.1393
30.1929
30.2458
30.298
30.3494
30.4002
30.4503
30.4996
30.5482
30.5961
30.6433
30.6898
30.7356
30.7806
30.8249
30.8685
30.9114
30.9536
30.995
31.0357
31.0757
31.115
31.1535
31.1913
31.2284
31.2647
31.3003
31.3352
31.3694
31.4028
31.4355
31.4675
31.4988
31.5293
31.5591
31.5882
31.6165
31.6441
31.671
31.6971
31.7226
31.7473
31.7712
31.7945
31.817
31.8388
31.8598
31.8801
31.8997
31.9186
31.9367
31.9542
31.9709
31.9868
32.002
32.0166
32.0303
32.0434
32.0557
32.0673
32.0782
32.0884
32.0978
32.1065
32.1145
32.1217
32.1282
32.134
32.1391
32.1435
32.1471
32.15
32.1522
32.1536
32.1543
34.278
34.265
34.2388
34.2003
34.1496
34.0877
34.0151
33.9325
33.8407
33.7402
33.6318
33.516
33.3934
33.2644
33.1294
32.9889
32.8432
32.6927
32.5376
32.3783
32.215
32.048
31.8775
31.7038
31.5271
31.3477
31.1658
30.9815
30.7953
30.6071
30.4173
30.2261
30.0337
29.8402
29.6459
29.4509
29.2555
29.0598
28.864
28.6683
28.4728
28.2777
28.0832
27.8894
27.6965
27.5046
27.3139
27.1245
26.9365
26.7501
26.5653
26.3824
26.2015
26.0226
25.8458
25.6713
25.4992
25.3295
25.1624
24.9979
24.8361
24.6772
24.5211
24.3679
24.2178
24.0707
23.9267
23.786
23.6485
23.5142
23.3833
23.2557
23.1316
23.0109
22.8936
22.7798
22.6695
22.5628
22.4596
22.36
22.2639
22.1714
22.0824
21.9971
21.9153
21.8371
21.7624
21.6913
21.6237
21.5597
21.4991
21.442
21.3885
21.3383
21.2916
21.2482
21.2082
21.1716
21.1382
21.1081
21.0813
21.0576
21.0371
21.0197
21.0053
20.994
20.9857
20.9804
20.9779
20.9783
20.9815
20.9874
20.9961
21.0075
21.0214
21.038
21.057
21.0785
21.1025
21.1288
21.1574
21.1883
21.2214
21.2567
21.2941
21.3336
21.3751
21.4185
21.4639
21.5111
21.5602
21.611
21.6635
21.7177
21.7735
21.8309
21.8898
21.9501
22.0119
22.0751
22.1396
22.2054
22.2724
22.3406
22.4099
22.4804
22.5519
22.6244
22.6979
22.7723
22.8476
22.9238
23.0008
23.0785
23.157
23.2362
23.3161
23.3965
23.4776
23.5592
23.6413
23.7238
23.8069
23.8903
23.9742
24.0583
24.1428
24.2276
24.3126
24.3979
24.4834
24.569
24.6548
24.7407
24.8267
24.9128
24.9989
25.085
25.1711
25.2572
25.3433
25.4292
25.5151
25.6009
25.6865
25.7719
25.8572
25.9423
26.0271
26.1118
26.1962
26.2803
26.3641
26.4476
26.5308
26.6137
26.6963
26.7784
26.8602
26.9417
27.0227
27.1033
27.1834
27.2632
27.3424
27.4213
27.4996
27.5775
27.6548
27.7317
27.808
27.8839
27.9592
28.0339
28.1081
28.1817
28.2548
28.3273
28.3992
28.4706
28.5413
28.6115
28.681
28.7499
28.8182
28.8859
28.9529
29.0193
29.0851
29.1502
29.2146
29.2785
29.3416
29.4041
29.4659
29.5271
29.5875
29.6473
29.7065
29.7649
29.8226
29.8797
29.9361
29.9917
30.0467
30.101
30.1546
30.2074
30.2596
30.3111
30.3618
30.4118
30.4612
30.5098
30.5577
30.6049
30.6513
30.6971
30.7421
30.7864
30.83
30.8728
30.915
30.9564
30.9971
31.037
31.0763
31.1148
31.1526
31.1896
31.226
31.2616
31.2964
31.3306
31.364
31.3967
31.4287
31.4599
31.4904
31.5202
31.5493
31.5776
31.6052
31.632
31.6582
31.6836
31.7083
31.7322
31.7554
31.7779
31.7997
31.8208
31.8411
31.8607
31.8795
31.8976
31.9151
31.9317
31.9477
31.9629
31.9774
31.9912
32.0042
32.0166
32.0282
32.039
32.0492
32.0586
32.0673
32.0753
32.0825
32.089
32.0948
32.0999
32.1042
32.1079
32.1108
32.1129
32.1144
32.1151
34.22
34.2071
34.1814
34.1433
34.0932
34.0319
33.9597
33.8775
33.7859
33.6857
33.5772
33.4613
33.3385
33.2091
33.0738
32.9328
32.7867
32.6357
32.4801
32.3202
32.1564
31.9889
31.818
31.6438
31.4667
31.2869
31.1046
30.9201
30.7335
30.545
30.355
30.1635
29.9709
29.7772
29.5827
29.3876
29.192
28.9962
28.8002
28.6044
28.4088
28.2137
28.0191
27.8253
27.6324
27.4405
27.2497
27.0603
26.8724
26.686
26.5013
26.3185
26.1376
25.9587
25.7821
25.6077
25.4357
25.2661
25.0991
24.9348
24.7731
24.6143
24.4584
24.3054
24.1555
24.0086
23.8648
23.7243
23.5869
23.4529
23.3222
23.1949
23.071
22.9505
22.8335
22.72
22.6099
22.5035
22.4005
22.3012
22.2054
22.1132
22.0245
21.9394
21.858
21.78
21.7057
21.6349
21.5676
21.5039
21.4437
21.3869
21.3336
21.2838
21.2374
21.1944
21.1548
21.1184
21.0854
21.0557
21.0291
21.0058
20.9856
20.9686
20.9546
20.9436
20.9356
20.9306
20.9285
20.9292
20.9328
20.9391
20.9481
20.9598
20.9741
20.9909
21.0103
21.0322
21.0564
21.0831
21.112
21.1433
21.1767
21.2123
21.25
21.2898
21.3316
21.3754
21.421
21.4686
21.5179
21.569
21.6218
21.6763
21.7324
21.7901
21.8492
21.9099
21.9719
22.0354
22.1001
22.1661
22.2334
22.3019
22.3715
22.4422
22.5139
22.5867
22.6604
22.7351
22.8106
22.887
22.9642
23.0422
23.1209
23.2003
23.2803
23.361
23.4422
23.524
23.6063
23.6891
23.7723
23.8559
23.9399
24.0242
24.1089
24.1939
24.2791
24.3645
24.4501
24.5359
24.6218
24.7079
24.794
24.8802
24.9665
25.0527
25.139
25.2252
25.3113
25.3974
25.4834
25.5693
25.655
25.7405
25.8259
25.9111
25.9961
26.0808
26.1653
26.2495
26.3334
26.417
26.5003
26.5833
26.6659
26.7481
26.83
26.9115
26.9926
27.0732
27.1534
27.2332
27.3126
27.3915
27.4699
27.5478
27.6252
27.7021
27.7785
27.8544
27.9297
28.0045
28.0787
28.1524
28.2255
28.2981
28.37
28.4414
28.5121
28.5823
28.6519
28.7208
28.7891
28.8568
28.9239
28.9903
29.0561
29.1212
29.1857
29.2496
29.3127
29.3752
29.4371
29.4982
29.5587
29.6185
29.6777
29.7361
29.7939
29.8509
29.9073
29.963
30.018
30.0722
30.1258
30.1787
30.2309
30.2823
30.3331
30.3831
30.4325
30.4811
30.529
30.5761
30.6226
30.6684
30.7134
30.7577
30.8013
30.8441
30.8863
30.9277
30.9684
31.0083
31.0476
31.0861
31.1239
31.1609
31.1972
31.2328
31.2677
31.3019
31.3353
31.368
31.3999
31.4312
31.4617
31.4915
31.5205
31.5488
31.5764
31.6033
31.6294
31.6548
31.6795
31.7034
31.7267
31.7492
31.7709
31.792
31.8123
31.8319
31.8507
31.8688
31.8862
31.9029
31.9189
31.9341
31.9486
31.9624
31.9754
31.9877
31.9993
32.0102
32.0203
32.0298
32.0384
32.0464
32.0537
32.0602
32.066
32.0711
32.0754
32.079
32.0819
32.0841
32.0855
32.0863
34.1532
34.1405
34.115
34.0772
34.0275
33.9664
33.8945
33.8125
33.7209
33.6206
33.512
33.3958
33.2725
33.1427
33.0069
32.8654
32.7187
32.5671
32.4109
32.2505
32.0862
31.9181
31.7467
31.5721
31.3946
31.2144
31.0317
30.8468
30.6599
30.4712
30.2809
30.0892
29.8963
29.7024
29.5078
29.3125
29.1168
28.9209
28.7249
28.529
28.3334
28.1382
27.9436
27.7498
27.5568
27.365
27.1743
26.9849
26.797
26.6107
26.4261
26.2434
26.0626
25.8839
25.7074
25.5331
25.3612
25.1919
25.025
24.8609
24.6994
24.5408
24.3851
24.2323
24.0826
23.936
23.7924
23.6521
23.5151
23.3813
23.2509
23.1238
23.0002
22.88
22.7633
22.6501
22.5404
22.4342
22.3316
22.2326
22.1371
22.0452
21.9569
21.8722
21.791
21.7135
21.6395
21.569
21.5021
21.4388
21.3789
21.3225
21.2696
21.2202
21.1741
21.1315
21.0922
21.0563
21.0237
20.9943
20.9681
20.9452
20.9254
20.9087
20.8951
20.8845
20.8769
20.8723
20.8705
20.8716
20.8756
20.8822
20.8916
20.9037
20.9183
20.9356
20.9553
20.9775
21.0022
21.0292
21.0585
21.0901
21.1238
21.1598
21.1979
21.238
21.2801
21.3242
21.3702
21.4181
21.4677
21.5192
21.5723
21.6271
21.6835
21.7415
21.8009
21.8619
21.9242
21.9879
22.053
22.1193
22.1868
22.2555
22.3254
22.3963
22.4683
22.5414
22.6153
22.6902
22.766
22.8427
22.9201
22.9983
23.0772
23.1568
23.2371
23.318
23.3994
23.4814
23.5639
23.6468
23.7302
23.8141
23.8982
23.9828
24.0676