/*--------------------------------*- C++ -*----------------------------------*\
| =========                 |                                                 |
| \\      /  F ield         | OpenFOAM: The Open Source CFD Toolbox           |
|  \\    /   O peration     | Version:  2212                                  |
|   \\  /    A nd           | Website:  www.openfoam.com                      |
|    \\/     M anipulation  |                                                 |
\*---------------------------------------------------------------------------*/
FoamFile
{
    version     2.0;
    format      ascii;
    arch        "LSB;label=32;scalar=64";
    class       surfaceScalarField;
    location    "470";
    object      phi;
}
// * * * * * * * * * * * * * * * * * * * * * * * * * * * * * * * * * * * * * //

dimensions      [1 0 -1 0 0 0 0];

oriented        oriented;

internalField   nonuniform List<scalar> 
408640
(
-2059.82
2060.29
-4088.58
2028.75
-6054.75
1966.15
-7936.51
1881.73
-9723.16
1786.61
-11413.4
1690.25
-13013.5
1600.07
-14534
1520.41
-15987.1
1453.11
-17385.1
1397.97
-18738.7
1353.65
-20056.9
1318.23
-21346.6
1289.72
-22612.8
1266.29
-23859.2
1246.44
-25088.1
1228.95
-26301
1212.94
-27498.7
1197.77
-28681.6
1182.98
-29849.8
1168.31
-31003.3
1153.56
-32141.9
1138.64
-33265.3
1123.51
-34373.4
1108.15
-35465.9
1092.56
-36542.6
1076.76
-37603.3
1060.78
-38647.9
1044.63
-39676.2
1028.33
-40688
1011.91
-41683.3
995.373
-42662
978.747
-43624
962.042
-44569.2
945.271
-45497.6
928.445
-46409.1
911.573
-47303.7
894.666
-48181.4
877.731
-49042.1
860.776
-49885.8
843.809
-50712.6
826.837
-51522.4
809.865
-52315.2
792.901
-53091.1
775.949
-53850
759.016
-54592.1
742.107
-55317.2
725.228
-56025.5
708.383
-56717
691.577
-57391.8
674.815
-58049.8
658.103
-58691.2
641.444
-59316
624.844
-59924.2
608.306
-60515.9
591.836
-61091.3
575.437
-61650.3
559.113
-62193.1
542.87
-62719.7
526.71
-63230.3
510.638
-63724.9
494.657
-64203.5
478.772
-64666.4
462.986
-65113.6
447.303
-65545.3
431.727
-65961.4
416.26
-66362.3
400.906
-66747.8
385.669
-67118.3
370.552
-67473.7
355.557
-67814.3
340.689
-68140.2
325.949
-68451.4
311.341
-68748.2
296.867
-69030.6
282.53
-69298.8
268.333
-69553
254.278
-69793.2
240.368
-70019.7
226.604
-70232.6
212.989
-70432
199.525
-70618.1
186.214
-70791
173.058
-70951
160.058
-71098.1
147.216
-71232.5
134.535
-71354.4
122.014
-71463.9
109.656
-71561.2
97.4617
-71646.5
85.4325
-71720
73.5694
-71781.7
61.8733
-71831.9
50.345
-71870.8
38.9854
-71898.5
27.7952
-71915.1
16.7748
-71920.9
5.92475
-71916
-4.75451
-71900.6
-15.2627
-71874.9
-25.5996
-71839
-35.7652
-71793.1
-45.7593
-71737.4
-55.5821
-71672
-65.2337
-71597.1
-74.7142
-71513
-84.024
-71419.7
-93.1636
-71317.4
-102.133
-71206.4
-110.933
-71086.7
-119.565
-70958.5
-128.029
-70822
-136.325
-70677.5
-144.454
-70524.9
-152.418
-70364.6
-160.218
-70196.6
-167.853
-70021.1
-175.326
-69838.4
-182.637
-69648.5
-189.788
-69451.5
-196.78
-69247.8
-203.614
-69037.4
-210.292
-68820.5
-216.814
-68597.2
-223.182
-68367.6
-229.398
-68132.1
-235.463
-67890.6
-241.379
-67643.3
-247.147
-67390.4
-252.768
-67132.1
-258.245
-66868.4
-263.58
-66599.5
-268.772
-66325.6
-273.826
-66046.8
-278.741
-65763.1
-283.521
-65474.9
-288.166
-65182.1
-292.679
-64885
-297.061
-64583.6
-301.314
-64278
-305.441
-63968.5
-309.442
-63655.1
-313.32
-63338
-317.076
-63017.2
-320.713
-62692.9
-324.232
-62365.2
-327.635
-62034.2
-330.925
-61700
-334.102
-61362.8
-337.17
-61022.6
-340.129
-60679.6
-342.982
-60333.8
-345.73
-59985.4
-348.376
-59634.5
-350.922
-59281.1
-353.368
-58925.3
-355.718
-58567.3
-357.973
-58207.2
-360.134
-57845
-362.204
-57480.8
-364.185
-57114.7
-366.078
-56746.8
-367.885
-56377.2
-369.607
-56005.9
-371.248
-55633.1
-372.808
-55258.9
-374.289
-54883.2
-375.693
-54506.2
-377.022
-54128
-378.278
-53748.5
-379.461
-53368
-380.574
-52986.4
-381.618
-52603.9
-382.596
-52220.4
-383.508
-51836.1
-384.357
-51451.1
-385.143
-51065.3
-385.868
-50678.8
-386.535
-50291.7
-387.144
-49904.1
-387.697
-49516
-388.196
-49127.5
-388.641
-48738.5
-389.035
-48349.3
-389.379
-47959.7
-389.674
-47569.9
-389.921
-47179.9
-390.123
-46789.8
-390.279
-46399.5
-390.393
-46009.2
-390.464
-45618.8
-390.494
-45228.5
-390.485
-44838.2
-390.438
-44448
-390.353
-44057.9
-390.233
-43668
-390.078
-43278.3
-389.89
-42888.8
-389.669
-42499.6
-389.416
-42110.6
-389.134
-41722
-388.822
-41333.7
-388.483
-40945.8
-388.116
-40558.3
-387.724
-40171.2
-387.306
-39784.6
-386.865
-39398.4
-386.4
-39012.7
-385.913
-38627.5
-385.406
-38242.9
-384.878
-37858.8
-384.33
-37475.3
-383.764
-37092.4
-383.181
-36710.1
-382.581
-36328.4
-381.964
-35947.3
-381.333
-35566.9
-380.687
-35187.2
-380.028
-34808.1
-379.356
-34429.7
-378.672
-34052
-377.976
-33675.1
-377.27
-33298.8
-376.553
-32923.3
-375.828
-32548.5
-375.094
-32174.5
-374.351
-31801.2
-373.602
-31428.7
-372.846
-31056.9
-372.083
-30686
-371.315
-30315.8
-370.542
-29946.3
-369.765
-29577.7
-368.984
-29209.9
-368.2
-28842.8
-367.413
-28476.6
-366.623
-28111.1
-365.832
-27746.4
-365.04
-27382.6
-364.246
-27019.5
-363.453
-26657.2
-362.659
-26295.8
-361.866
-25935.1
-361.075
-25575.2
-360.284
-25216.1
-359.496
-24857.8
-358.709
-24500.3
-357.926
-24143.5
-357.145
-23787.6
-356.368
-23432.4
-355.594
-23078
-354.825
-22724.4
-354.06
-22371.5
-353.3
-22019.4
-352.545
-21668.1
-351.796
-21317.4
-351.052
-20967.6
-350.314
-20618.4
-349.583
-20270
-348.858
-19922.4
-348.14
-19575.4
-347.429
-19229.1
-346.726
-18883.5
-346.03
-18538.7
-345.343
-18194.5
-344.663
-17851
-343.992
-17508.1
-343.33
-17165.9
-342.676
-16824.4
-342.031
-16483.4
-341.396
-16143.2
-340.77
-15803.5
-340.154
-15464.4
-339.548
-15126
-338.952
-14788.1
-338.366
-14450.8
-337.791
-14114.1
-337.226
-13777.9
-336.672
-13442.3
-336.128
-13107.2
-335.596
-12772.7
-335.075
-12438.6
-334.565
-12105
-334.067
-11772
-333.58
-11439.4
-333.105
-11107.3
-332.642
-10775.6
-332.191
-10444.4
-331.752
-10113.6
-331.326
-9783.18
-330.911
-9453.19
-330.509
-9123.6
-330.12
-8794.39
-329.743
-8465.54
-329.378
-8137.05
-329.027
-7808.89
-328.688
-7481.07
-328.363
-7153.55
-328.05
-6826.34
-327.751
-6499.41
-327.464
-6172.76
-327.191
-5846.37
-326.932
-5520.23
-326.685
-5194.32
-326.453
-4868.63
-326.233
-4543.14
-326.028
-4217.85
-325.836
-3892.74
-325.659
-3567.79
-325.496
-3242.99
-325.346
-2918.32
-325.212
-2593.78
-325.092
-2269.34
-324.986
-1944.99
-324.895
-1620.72
-324.82
-1296.51
-324.759
-972.346
-324.712
-648.215
-324.68
-324.103
-324.661
-324.652
-2034.4
4094.69
-4040.08
4034.42
-5988.62
3914.67
-7859.72
3752.8
-9642.54
3569.38
-11334.8
3382.47
-12941.1
3206.29
-14470.2
3049.48
-15932.9
2915.89
-17340.5
2805.5
-18702.8
2716.01
-20028.5
2643.92
-21324.2
2585.51
-22595.2
2537.31
-23845.1
2496.39
-25076.4
2460.38
-26290.9
2427.51
-27489.6
2396.48
-28672.9
2366.39
-29841.2
2336.64
-30994.4
2306.85
-32132.5
2276.8
-33255.3
2246.38
-34362.7
2215.54
-35454.3
2184.28
-36530.1
2152.63
-37589.9
2120.62
-38633.5
2088.28
-39660.8
2055.67
-40671.6
2022.8
-41665.9
1989.73
-42643.6
1956.47
-43604.5
1923.06
-44548.7
1889.52
-45476.1
1855.87
-46386.5
1822.13
-47280.1
1788.32
-48156.8
1754.45
-49016.5
1720.55
-49859.2
1686.62
-50685
1652.68
-51493.8
1618.75
-52285.7
1584.83
-53060.6
1550.94
-53818.6
1517.08
-54559.7
1483.27
-55283.9
1449.52
-55991.3
1415.84
-56681.9
1382.24
-57355.7
1348.73
-58012.9
1315.31
-58653.4
1282.01
-59277.3
1248.82
-59884.6
1215.75
-60475.5
1182.83
-61050.1
1150.04
-61608.3
1117.4
-62150.3
1084.93
-62676.1
1052.62
-63185.8
1020.49
-63679.6
988.539
-64157.6
956.781
-64619.7
925.222
-65066.2
893.868
-65497.1
862.727
-65912.5
831.806
-66312.6
801.111
-66697.5
770.649
-67067.3
740.427
-67422.1
710.451
-67762
680.727
-68087.2
651.26
-68397.8
622.056
-68694
593.122
-68975.8
564.461
-69243.4
536.08
-69497
507.983
-69736.7
480.175
-69962.7
452.66
-70175
425.443
-70373.9
398.528
-70559.5
371.919
-70731.9
345.62
-70891.4
319.633
-71038
293.963
-71172
268.612
-71293.4
243.584
-71402.5
218.881
-71499.4
194.506
-71584.3
170.46
-71657.4
146.747
-71718.8
123.367
-71768.6
100.324
-71807.1
77.6171
-71834.4
55.2493
-71850.7
33.2212
-71856.2
11.5338
-71851
-9.81215
-71835.3
-30.816
-71809.3
-51.4774
-71773.2
-71.7961
-71727
-91.7721
-71671.1
-111.405
-71605.5
-130.696
-71530.4
-149.645
-71446
-168.253
-71352.6
-186.52
-71250.1
-204.447
-71138.9
-222.036
-71019
-239.288
-70890.7
-256.203
-70754.1
-272.784
-70609.4
-289.032
-70456.7
-304.948
-70296.3
-320.536
-70128.2
-335.796
-69952.7
-350.731
-69769.9
-365.342
-69579.9
-379.634
-69382.9
-393.607
-69179.2
-407.264
-68968.7
-420.608
-68751.8
-433.642
-68528.5
-446.369
-68299
-458.791
-68063.4
-470.911
-67821.9
-482.732
-67574.7
-494.258
-67321.9
-505.492
-67063.6
-516.437
-66800
-527.096
-66531.2
-537.473
-66257.3
-547.571
-65978.6
-557.393
-65695
-566.944
-65406.9
-576.225
-65114.2
-585.243
-64817.2
-593.999
-64515.9
-602.497
-64210.6
-610.741
-63901.2
-618.736
-63587.9
-626.483
-63271
-633.989
-62950.3
-641.255
-62626.2
-648.286
-62298.7
-655.085
-61967.9
-661.657
-61634
-668.005
-61296.9
-674.133
-60957
-680.045
-60614.2
-685.744
-60268.6
-691.235
-59920.4
-696.521
-59569.7
-701.605
-59216.6
-706.492
-58861.1
-711.186
-58503.3
-715.689
-58143.4
-720.007
-57781.5
-724.141
-57417.6
-728.097
-57051.8
-731.877
-56684.2
-735.486
-56314.8
-738.927
-55943.9
-742.203
-55571.4
-745.319
-55197.4
-748.276
-54822.1
-751.08
-54445.4
-753.733
-54067.4
-756.24
-53688.3
-758.602
-53308.1
-760.824
-52926.9
-762.909
-52544.7
-764.86
-52161.5
-766.681
-51777.6
-768.374
-51392.9
-769.943
-51007.4
-771.391
-50621.3
-772.721
-50234.6
-773.936
-49847.3
-775.039
-49459.6
-776.033
-49071.4
-776.921
-48682.8
-777.706
-48293.9
-778.391
-47904.7
-778.978
-47515.3
-779.47
-47125.7
-779.87
-46735.9
-780.181
-46346
-780.406
-45956.1
-780.546
-45566.1
-780.605
-45176.1
-780.585
-44786.2
-780.488
-44396.4
-780.317
-44006.8
-780.075
-43617.2
-779.763
-43227.9
-779.384
-42838.8
-778.94
-42450
-778.434
-42061.5
-777.868
-41673.2
-777.243
-41285.4
-776.563
-40897.8
-775.828
-40510.7
-775.042
-40124.1
-774.206
-39737.8
-773.322
-39352
-772.392
-38966.8
-771.417
-38582
-770.401
-38197.8
-769.344
-37814.1
-768.248
-37431
-767.116
-37048.5
-765.948
-36666.6
-764.747
-36285.3
-763.514
-35904.7
-762.251
-35524.7
-760.958
-35145.3
-759.639
-34766.7
-758.295
-34388.7
-756.926
-34011.5
-755.534
-33634.9
-754.121
-33259.1
-752.688
-32884
-751.237
-32509.6
-749.768
-32136
-748.283
-31763.2
-746.784
-31391.1
-745.271
-31019.7
-743.746
-30649.2
-742.21
-30279.4
-740.665
-29910.4
-739.11
-29542.2
-737.548
-29174.8
-735.979
-28808.1
-734.405
-28442.3
-732.826
-28077.3
-731.244
-27713
-729.659
-27349.6
-728.072
-26986.9
-726.485
-26625.1
-724.899
-26264
-723.313
-25903.7
-721.73
-25544.3
-720.149
-25185.6
-718.572
-24827.7
-717
-24470.6
-715.433
-24114.3
-713.872
-23758.8
-712.318
-23404
-710.771
-23050
-709.233
-22696.8
-707.703
-22344.4
-706.183
-21992.7
-704.674
-21641.7
-703.175
-21291.5
-701.687
-20942.1
-700.212
-20593.4
-698.75
-20245.4
-697.301
-19898.1
-695.865
-19551.5
-694.444
-19205.7
-693.038
-18860.5
-691.647
-18516.1
-690.272
-18172.3
-688.913
-17829.2
-687.571
-17486.7
-686.247
-17145
-684.94
-16803.8
-683.652
-16463.3
-682.381
-16123.4
-681.13
-15784.2
-679.899
-15445.5
-678.687
-15107.5
-677.495
-14770
-676.323
-14433.1
-675.173
-14096.8
-674.043
-13761.1
-672.935
-13425.8
-671.849
-13091.2
-670.785
-12757
-669.743
-12423.4
-668.724
-12090.2
-667.728
-11757.5
-666.755
-11425.4
-665.805
-11093.6
-664.879
-10762.4
-663.978
-10431.6
-663.1
-10101.2
-662.247
-9771.17
-661.418
-9441.59
-660.614
-9112.4
-659.835
-8783.59
-659.082
-8455.15
-658.354
-8127.06
-657.651
-7799.3
-656.974
-7471.88
-656.323
-7144.76
-655.698
-6817.95
-655.099
-6491.43
-654.527
-6165.18
-653.981
-5839.19
-653.462
-5513.44
-652.969
-5187.93
-652.504
-4862.64
-652.066
-4537.56
-651.655
-4212.66
-651.272
-3887.95
-650.917
-3563.4
-650.59
-3239
-650.292
-2914.73
-650.023
-2590.59
-649.783
-2266.55
-649.572
-1942.6
-649.391
-1618.73
-649.239
-1294.92
-649.117
-971.154
-649.024
-647.422
-648.96
-323.709
-648.922
-648.91
-2006.87
6101.55
-3987.37
6014.9
-5916.3
5843.57
-7775.1
5611.56
-9553.06
5347.31
-11247
5076.4
-12860
4819.22
-14399
4588.46
-15873.2
4390.12
-17292.4
4224.69
-18665.7
4089.31
-20001
3979.27
-21304.9
3889.42
-22582.4
3814.86
-23837.4
3751.38
-25072.5
3695.54
-26289.6
3644.72
-27490
3596.95
-28674.4
3550.86
-29843.2
3505.5
-30996.5
3460.25
-32134.4
3414.76
-33256.8
3368.82
-34363.5
3322.33
-35454.5
3275.28
-36529.5
3227.68
-37588.4
3179.57
-38631
3131.01
-39657.3
3082.04
-40667.2
3032.71
-41660.5
2983.07
-42637.1
2933.17
-43597
2883.04
-44540.2
2832.72
-45466.5
2782.25
-46375.9
2731.64
-47268.5
2680.93
-48144.1
2630.14
-49002.8
2579.29
-49844.5
2528.41
-50669.2
2477.51
-51477
2426.62
-52267.9
2375.75
-53041.8
2324.92
-53798.8
2274.15
-54538.9
2223.45
-55262.2
2172.84
-55968.6
2122.33
-56658.2
2071.95
-57331.1
2021.69
-57987.3
1971.59
-58626.9
1921.64
-59249.9
1871.87
-59856.3
1822.29
-60446.3
1772.92
-61020
1723.75
-61577.3
1674.82
-62118.4
1626.12
-62643.4
1577.67
-63152.3
1529.49
-63645.2
1481.58
-64122.3
1433.96
-64583.7
1386.64
-65029.3
1339.63
-65459.5
1292.93
-65874.1
1246.57
-66273.5
1200.54
-66657.6
1154.87
-67026.6
1109.55
-67380.7
1064.61
-67719.9
1020.04
-68044.4
975.856
-68354.3
932.068
-68649.7
888.684
-68930.9
845.711
-69197.8
803.158
-69450.8
761.03
-69689.8
719.336
-69915.1
678.083
-70126.8
637.275
-70325.1
596.921
-70510.1
557.026
-70682
517.595
-70840.8
478.634
-70986.9
440.147
-71120.3
402.139
-71241.2
364.616
-71349.8
327.58
-71446.2
291.035
-71530.6
254.985
-71603.2
219.434
-71664
184.383
-71713.4
149.836
-71751.5
115.795
-71778.4
82.2619
-71794.2
49.2383
-71799.3
16.7257
-71793.7
-15.2748
-71777.6
-46.7622
-71751.2
-77.7359
-71714.7
-108.196
-71668.2
-138.141
-71611.9
-167.573
-71546
-196.491
-71470.6
-224.897
-71385.9
-252.79
-71292.1
-280.173
-71189.4
-307.046
-71077.9
-333.411
-70957.8
-359.271
-70829.2
-384.626
-70692.4
-409.48
-70547.5
-433.834
-70394.6
-457.692
-70233.9
-481.056
-70065.7
-503.929
-69890
-526.315
-69707
-548.216
-69516.8
-569.636
-69319.7
-590.579
-69115.8
-611.048
-68905.3
-631.049
-68688.2
-650.584
-68464.8
-669.657
-68235.2
-688.274
-67999.6
-706.439
-67758
-724.156
-67510.7
-741.43
-67257.8
-758.266
-66999.5
-774.668
-66735.9
-790.642
-66467
-806.193
-66193.2
-821.325
-65914.4
-836.044
-65630.9
-850.356
-65342.8
-864.265
-65050.2
-877.777
-64753.2
-890.897
-64452
-903.631
-64146.6
-915.985
-63837.3
-927.964
-63524.2
-939.573
-63207.2
-950.818
-62886.7
-961.705
-62562.7
-972.239
-62235.3
-982.427
-61904.6
-992.273
-61570.8
-1001.78
-61233.9
-1010.96
-60894.1
-1019.82
-60551.4
-1028.36
-60206
-1036.58
-59858
-1044.5
-59507.5
-1052.12
-59154.5
-1059.44
-58799.2
-1066.47
-58441.6
-1073.21
-58081.9
-1079.68
-57720.2
-1085.87
-57356.5
-1091.8
-56990.9
-1097.46
-56623.5
-1102.86
-56254.4
-1108.02
-55883.7
-1112.92
-55511.4
-1117.59
-55137.7
-1122.02
-54762.6
-1126.21
-54386.2
-1130.19
-54008.5
-1133.94
-53629.7
-1137.48
-53249.7
-1140.8
-52868.8
-1143.92
-52486.8
-1146.84
-52104
-1149.57
-51720.4
-1152.1
-51335.9
-1154.45
-50950.8
-1156.61
-50565
-1158.6
-50178.6
-1160.42
-49791.6
-1162.07
-49404.2
-1163.55
-49016.3
-1164.88
-48628.1
-1166.05
-48239.5
-1167.07
-47850.6
-1167.95
-47461.5
-1168.68
-47072.3
-1169.28
-46682.8
-1169.74
-46293.3
-1170.07
-45903.7
-1170.28
-45514.1
-1170.36
-45124.5
-1170.33
-44734.9
-1170.18
-44345.5
-1169.92
-43956.2
-1169.55
-43567
-1169.08
-43178.1
-1168.51
-42789.4
-1167.84
-42400.9
-1167.08
-42012.7
-1166.23
-41624.9
-1165.29
-41237.4
-1164.26
-40850.2
-1163.16
-40463.5
-1161.98
-40077.2
-1160.72
-39691.4
-1159.39
-39306
-1158
-38921.1
-1156.53
-38536.7
-1155.01
-38152.9
-1153.42
-37769.6
-1151.77
-37386.9
-1150.07
-37004.8
-1148.32
-36623.3
-1146.52
-36242.4
-1144.66
-35862.2
-1142.77
-35482.6
-1140.83
-35103.7
-1138.85
-34725.4
-1136.83
-34347.8
-1134.78
-33971
-1132.69
-33594.8
-1130.57
-33219.4
-1128.42
-32844.7
-1126.24
-32470.8
-1124.03
-32097.6
-1121.81
-31725.1
-1119.56
-31353.4
-1117.29
-30982.5
-1115
-30612.4
-1112.7
-30243
-1110.38
-29874.4
-1108.04
-29506.6
-1105.7
-29139.6
-1103.35
-28773.4
-1100.98
-28408
-1098.62
-28043.3
-1096.24
-27679.5
-1093.86
-27316.5
-1091.49
-26954.2
-1089.1
-26592.8
-1086.72
-26232.1
-1084.35
-25872.3
-1081.97
-25513.2
-1079.6
-25155
-1077.23
-24797.5
-1074.88
-24440.8
-1072.53
-24084.9
-1070.18
-23729.8
-1067.85
-23375.5
-1065.53
-23021.9
-1063.23
-22669.1
-1060.93
-22317.1
-1058.65
-21965.8
-1056.39
-21615.3
-1054.14
-21265.5
-1051.91
-20916.4
-1049.7
-20568.1
-1047.5
-20220.6
-1045.33
-19873.7
-1043.18
-19527.5
-1041.05
-19182.1
-1038.94
-18837.4
-1036.85
-18493.3
-1034.79
-18149.9
-1032.75
-17807.3
-1030.74
-17465.2
-1028.75
-17123.8
-1026.79
-16783.1
-1024.86
-16443
-1022.96
-16103.6
-1021.08
-15764.7
-1019.23
-15426.5
-1017.41
-15088.8
-1015.63
-14751.8
-1013.87
-14415.3
-1012.15
-14079.4
-1010.45
-13744.1
-1008.79
-13409.2
-1007.16
-13075
-1005.56
-12741.2
-1004
-12408
-1002.47
-12075.2
-1000.98
-11743
-999.522
-11411.2
-998.098
-11079.9
-996.709
-10749
-995.357
-10418.6
-994.041
-10088.6
-992.761
-9759.06
-991.519
-9429.88
-990.313
-9101.1
-989.146
-8772.69
-988.016
-8444.66
-986.923
-8116.97
-985.87
-7789.62
-984.855
-7462.6
-983.878
-7135.89
-982.941
-6809.48
-982.043
-6483.36
-981.185
-6157.52
-980.366
-5831.93
-979.588
-5506.59
-978.85
-5181.48
-978.152
-4856.6
-977.495
-4531.92
-976.879
-4207.43
-976.305
-3883.12
-975.772
-3558.97
-975.282
-3234.97
-974.835
-2911.11
-974.431
-2587.37
-974.071
-2263.73
-973.755
-1940.19
-973.483
-1616.72
-973.256
-1293.31
-973.073
-969.948
-972.934
-646.618
-972.838
-323.306
-972.782
-972.764
-1971.42
8072.96
-3919.62
7963.09
-5823.31
7747.23
-7666.1
7454.32
-9437.64
7118.8
-11133.8
6772.48
-12755.5
6440.92
-14307.7
6140.62
-15797.4
5879.81
-17232.6
5659.87
-18621.1
5477.83
-19970.1
5328.28
-21285.7
5205.03
-22572.8
5102.05
-23835.4
5014.04
-25076.4
4936.61
-26298
4866.32
-27501.5
4800.57
-28688.1
4737.48
-29858.2
4675.72
-31012.4
4614.43
-32150.6
4553.04
-33272.9
4491.24
-34379.4
4428.85
-35469.8
4365.81
-36544.2
4302.12
-37602.4
4237.81
-38644.3
4172.94
-39669.7
4107.55
-40678.7
4041.71
-41671
3975.48
-42646.7
3908.91
-43605.6
3842.04
-44547.8
3774.93
-45473.1
3707.61
-46381.5
3640.13
-47273
3572.51
-48147.6
3504.79
-49005.2
3436.99
-49845.9
3369.15
-50669.6
3301.3
-51476.4
3233.45
-52266.2
3165.64
-53039.1
3097.87
-53795.1
3030.19
-54534.1
2962.6
-55256.4
2895.13
-55961.8
2827.81
-56650.4
2760.64
-57322.3
2693.65
-57977.5
2626.85
-58616
2560.28
-59238
2493.94
-59843.5
2427.84
-60432.5
2362.02
-61005.2
2296.49
-61561.5
2231.26
-62101.7
2166.34
-62625.7
2101.77
-63133.6
2037.54
-63625.7
1973.69
-64101.8
1910.21
-64562.2
1847.13
-65007
1784.47
-65436.2
1722.23
-65849.9
1660.43
-66248.4
1599.08
-66631.6
1538.2
-66999.8
1477.8
-67352.9
1417.89
-67691.3
1358.49
-68014.9
1299.6
-68324
1241.24
-68618.6
1183.41
-68898.9
1126.14
-69165.1
1069.42
-69417.2
1013.27
-69655.5
957.701
-69880
902.718
-70090.9
848.331
-70288.4
794.548
-70472.7
741.376
-70643.8
688.824
-70801.9
636.899
-70947.3
585.606
-71079.9
534.953
-71200.2
484.944
-71308
435.587
-71403.8
386.884
-71487.5
338.842
-71559.4
291.463
-71619.6
244.753
-71668.4
198.715
-71705.8
153.351
-71732.1
108.664
-71747.4
64.6569
-71751.8
21.3311
-71745.7
-21.3117
-71729
-63.2704
-71702.1
-104.544
-71665
-145.133
-71618
-185.035
-71561.2
-224.253
-71494.8
-262.786
-71418.9
-300.635
-71333.7
-337.802
-71239.5
-374.287
-71136.3
-410.094
-71024.4
-445.223
-70903.8
-479.678
-70774.9
-513.461
-70637.6
-546.575
-70492.3
-579.023
-70339.1
-610.809
-70178.1
-641.937
-70009.4
-672.41
-69833.4
-702.234
-69650.1
-731.411
-69459.6
-759.948
-69262.2
-787.848
-69058.1
-815.117
-68847.2
-841.761
-68629.9
-867.784
-68406.2
-893.193
-68176.4
-917.993
-67940.5
-942.19
-67698.8
-965.79
-67451.3
-988.8
-67198.2
-1011.23
-66939.7
-1033.07
-66675.9
-1054.35
-66406.9
-1075.06
-66132.9
-1095.22
-65854.1
-1114.82
-65570.4
-1133.88
-65282.2
-1152.41
-64989.5
-1170.4
-64692.4
-1187.88
-64391.1
-1204.84
-64085.7
-1221.29
-63776.4
-1237.24
-63463.2
-1252.7
-63146.2
-1267.68
-62825.7
-1282.17
-62501.7
-1296.2
-62174.3
-1309.76
-61843.6
-1322.88
-61509.8
-1335.54
-61173
-1347.76
-60833.2
-1359.55
-60490.6
-1370.92
-60145.2
-1381.87
-59797.3
-1392.41
-59446.8
-1402.55
-59093.9
-1412.3
-58738.7
-1421.66
-58381.3
-1430.63
-58021.7
-1439.24
-57660.1
-1447.48
-57296.5
-1455.37
-56931
-1462.9
-56563.8
-1470.1
-56194.9
-1476.95
-55824.3
-1483.48
-55452.2
-1489.69
-55078.7
-1495.58
-54703.8
-1501.16
-54327.5
-1506.45
-53950.1
-1511.44
-53571.4
-1516.14
-53191.7
-1520.56
-52811
-1524.71
-52429.3
-1528.6
-52046.7
-1532.22
-51663.2
-1535.59
-51279
-1538.7
-50894.1
-1541.58
-50508.6
-1544.22
-50122.5
-1546.64
-49735.8
-1548.83
-49348.6
-1550.8
-48961
-1552.56
-48573.1
-1554.11
-48184.8
-1555.47
-47796.2
-1556.63
-47407.4
-1557.6
-47018.4
-1558.38
-46629.3
-1558.99
-46240.1
-1559.43
-45850.8
-1559.7
-45461.5
-1559.8
-45072.2
-1559.75
-44683
-1559.55
-44293.9
-1559.19
-43904.9
-1558.7
-43516.1
-1558.06
-43127.5
-1557.29
-42739.1
-1556.4
-42351
-1555.38
-41963.2
-1554.23
-41575.7
-1552.98
-41188.6
-1551.61
-40801.8
-1550.13
-40415.4
-1548.55
-40029.5
-1546.87
-39644
-1545.09
-39259
-1543.23
-38874.5
-1541.27
-38490.5
-1539.23
-38107.1
-1537.11
-37724.2
-1534.92
-37341.8
-1532.64
-36960.1
-1530.3
-36579
-1527.9
-36198.5
-1525.43
-35818.6
-1522.89
-35439.4
-1520.31
-35060.9
-1517.66
-34683.1
-1514.97
-34305.9
-1512.23
-33929.4
-1509.44
-33553.7
-1506.61
-33178.7
-1503.74
-32804.4
-1500.84
-32430.8
-1497.9
-32058
-1494.92
-31686
-1491.92
-31314.7
-1488.89
-30944.2
-1485.84
-30574.5
-1482.77
-30205.5
-1479.68
-29837.3
-1476.56
-29470
-1473.44
-29103.4
-1470.3
-28737.6
-1467.15
-28372.6
-1463.99
-28008.3
-1460.82
-27644.9
-1457.65
-27282.3
-1454.48
-26920.5
-1451.3
-26559.5
-1448.13
-26199.2
-1444.96
-25839.8
-1441.79
-25481.2
-1438.63
-25123.3
-1435.48
-24766.3
-1432.33
-24410
-1429.2
-24054.6
-1426.07
-23699.9
-1422.97
-23345.9
-1419.87
-22992.8
-1416.8
-22640.4
-1413.74
-22288.8
-1410.7
-21937.9
-1407.68
-21587.8
-1404.68
-21238.5
-1401.71
-20889.9
-1398.76
-20542
-1395.83
-20194.8
-1392.94
-19848.4
-1390.06
-19502.7
-1387.22
-19157.7
-1384.41
-18813.3
-1381.63
-18469.7
-1378.88
-18126.8
-1376.16
-17784.5
-1373.48
-17442.9
-1370.83
-17101.9
-1368.22
-16761.6
-1365.64
-16422
-1363.11
-16082.9
-1360.6
-15744.5
-1358.14
-15406.7
-1355.72
-15069.5
-1353.34
-14732.8
-1350.99
-14396.8
-1348.69
-14061.3
-1346.44
-13726.4
-1344.22
-13392
-1342.05
-13058.1
-1339.92
-12724.8
-1337.84
-12392
-1335.8
-12059.7
-1333.81
-11727.9
-1331.87
-11396.5
-1329.97
-11065.6
-1328.12
-10735.2
-1326.31
-10405.2
-1324.56
-10075.6
-1322.85
-9746.45
-1321.2
-9417.7
-1319.59
-9089.34
-1318.03
-8761.36
-1316.53
-8433.74
-1315.07
-8106.47
-1313.67
-7779.54
-1312.31
-7452.94
-1311.01
-7126.66
-1309.76
-6800.67
-1308.57
-6474.97
-1307.42
-6149.54
-1306.33
-5824.38
-1305.29
-5499.46
-1304.31
-5174.77
-1303.38
-4850.3
-1302.5
-4526.04
-1301.68
-4201.97
-1300.92
-3878.08
-1300.21
-3554.36
-1299.55
-3230.78
-1298.96
-2907.34
-1298.42
-2584.02
-1297.94
-2260.8
-1297.52
-1937.67
-1297.15
-1614.62
-1296.85
-1291.64
-1296.61
-968.694
-1296.42
-645.783
-1296.3
-322.89
-1296.22
-1296.2
-1941.92
10014.9
-3863.31
9884.45
-5745.92
9629.82
-7575.24
9283.59
-9341.31
8884.82
-11039.3
8470.4
-12668.7
8070.31
-14232.6
7704.51
-15736.3
7383.46
-17186.2
7109.71
-18588.9
6880.55
-19950.8
6690.25
-21277.7
6531.93
-22574.3
6398.69
-23844.5
6284.35
-25091.5
6183.67
-26317.6
6092.48
-27524.5
6007.54
-28713.5
5926.46
-29885.2
5847.53
-31040.3
5769.57
-32179
5691.82
-33301.5
5613.79
-34407.8
5535.23
-35497.9
5456
-36571.8
5376.06
-37629.4
5295.43
-38670.5
5214.15
-39695.2
5132.28
-40703.3
5049.87
-41694.7
4967
-42669.5
4883.72
-43627.5
4800.09
-44568.7
4716.17
-45493
4631.99
-46400.4
4547.62
-47290.9
4463.08
-48164.5
4378.42
-49021.1
4293.67
-49860.8
4208.87
-50683.5
4124.06
-51489.2
4039.25
-52278
3954.48
-53049.8
3869.79
-53804.8
3785.19
-54542.8
3700.72
-55264
3616.39
-55968.4
3532.25
-56656
3448.3
-57326.8
3364.57
-57981
3281.09
-58618.5
3197.89
-59239.5
3114.97
-59843.9
3032.38
-60431.9
2950.11
-61003.6
2868.21
-61558.9
2786.69
-62098.1
2705.57
-62621.1
2624.86
-63128
2544.6
-63619.1
2464.8
-64094.2
2385.47
-64553.7
2306.64
-64997.4
2228.33
-65425.7
2150.55
-65838.4
2073.32
-66235.9
1996.66
-66618.2
1920.58
-66985.4
1845.1
-67337.6
1770.23
-67675
1696
-67997.7
1622.41
-68305.9
1549.48
-68599.6
1477.22
-68879
1405.65
-69144.2
1334.77
-69395.5
1264.61
-69632.8
1195.17
-69856.5
1126.47
-70066.5
1058.51
-70263.2
991.306
-70446.5
924.868
-70616.8
859.204
-70774.1
794.323
-70918.6
730.233
-71050.5
666.943
-71169.9
604.459
-71276.9
542.789
-71371.9
481.938
-71454.8
421.913
-71525.9
362.719
-71585.4
304.359
-71633.4
246.84
-71670.1
190.164
-71695.6
134.334
-71710.2
79.3545
-71714
25.2267
-71707.1
-28.0471
-71689.8
-80.4656
-71662.2
-132.028
-71624.4
-182.733
-71576.8
-232.581
-71519.3
-281.573
-71452.2
-329.708
-71375.8
-376.989
-71290
-423.416
-71195.2
-468.992
-71091.4
-513.719
-70978.9
-557.6
-70857.8
-600.637
-70728.3
-642.835
-70590.6
-684.196
-70444.7
-724.725
-70291
-764.426
-70129.5
-803.305
-69960.4
-841.366
-69783.9
-878.613
-69600.1
-915.054
-69409.2
-950.694
-69211.4
-985.539
-69006.8
-1019.59
-68795.6
-1052.87
-68577.9
-1085.37
-68353.9
-1117.1
-68123.7
-1148.07
-67887.5
-1178.28
-67645.4
-1207.75
-67397.6
-1236.49
-67144.2
-1264.49
-66885.4
-1291.77
-66621.3
-1318.34
-66352.1
-1344.2
-66077.8
-1369.36
-65798.7
-1393.84
-65514.9
-1417.64
-65226.4
-1440.77
-64933.5
-1463.23
-64636.3
-1485.05
-64334.8
-1506.22
-64029.2
-1526.76
-63719.7
-1546.67
-63406.4
-1565.97
-63089.3
-1584.66
-62768.7
-1602.76
-62444.5
-1620.26
-62117
-1637.2
-61786.3
-1653.56
-61452.4
-1669.36
-61115.5
-1684.62
-60775.7
-1699.34
-60433
-1713.52
-60087.7
-1727.19
-59739.7
-1740.34
-59389.2
-1752.99
-59036.3
-1765.15
-58681.1
-1776.83
-58323.7
-1788.03
-57964.2
-1798.77
-57602.6
-1809.05
-57239.1
-1818.88
-56873.7
-1828.28
-56506.5
-1837.25
-56137.7
-1845.8
-55767.2
-1853.94
-55395.3
-1861.68
-55021.8
-1869.03
-54647
-1875.99
-54270.9
-1882.58
-53893.6
-1888.8
-53515.1
-1894.66
-53135.5
-1900.18
-52754.9
-1905.35
-52373.4
-1910.18
-51991
-1914.7
-51607.7
-1918.89
-51223.7
-1922.77
-50839
-1926.36
-50453.7
-1929.65
-50067.7
-1932.65
-49681.3
-1935.37
-49294.3
-1937.82
-48907
-1940.01
-48519.2
-1941.94
-48131.2
-1943.62
-47742.9
-1945.06
-47354.3
-1946.26
-46965.6
-1947.23
-46576.7
-1947.98
-46187.8
-1948.52
-45798.8
-1948.84
-45409.8
-1948.96
-45020.8
-1948.89
-44631.9
-1948.62
-44243
-1948.17
-43854.4
-1947.54
-43465.9
-1946.74
-43077.5
-1945.77
-42689.5
-1944.64
-42301.7
-1943.36
-41914.2
-1941.92
-41527
-1940.34
-41140.2
-1938.62
-40753.8
-1936.77
-40367.7
-1934.79
-39982.2
-1932.68
-39597
-1930.45
-39212.4
-1928.11
-38828.2
-1925.66
-38444.6
-1923.11
-38061.5
-1920.45
-37678.9
-1917.7
-37297
-1914.86
-36915.6
-1911.92
-36534.8
-1908.91
-36154.7
-1905.82
-35775.2
-1902.65
-35396.4
-1899.41
-35018.3
-1896.1
-34640.8
-1892.73
-34264
-1889.3
-33887.9
-1885.81
-33512.6
-1882.27
-33137.9
-1878.68
-32764
-1875.04
-32390.9
-1871.37
-32018.5
-1867.65
-31646.8
-1863.89
-31276
-1860.11
-30905.8
-1856.29
-30536.5
-1852.44
-30168
-1848.57
-29800.2
-1844.68
-29433.2
-1840.77
-29067
-1836.85
-28701.6
-1832.91
-28337
-1828.96
-27973.2
-1825
-27610.2
-1821.03
-27248
-1817.06
-26886.6
-1813.09
-26526
-1809.12
-26166.2
-1805.16
-25807.2
-1801.2
-25448.9
-1797.25
-25091.5
-1793.3
-24734.9
-1789.37
-24379
-1785.45
-24024
-1781.55
-23669.7
-1777.66
-23316.2
-1773.79
-22963.5
-1769.95
-22611.5
-1766.12
-22260.3
-1762.32
-21909.9
-1758.55
-21560.2
-1754.8
-21211.3
-1751.08
-20863.1
-1747.4
-20515.6
-1743.74
-20168.9
-1740.12
-19822.9
-1736.53
-19477.6
-1732.98
-19133
-1729.46
-18789.1
-1725.99
-18445.9
-1722.55
-18103.4
-1719.15
-17761.5
-1715.8
-17420.3
-1712.49
-17079.8
-1709.22
-16739.9
-1706
-16400.7
-1702.83
-16062.1
-1699.7
-15724.1
-1696.63
-15386.7
-1693.6
-15049.9
-1690.62
-14713.7
-1687.69
-14378.1
-1684.82
-14043
-1681.99
-13708.5
-1679.23
-13374.6
-1676.51
-13041.1
-1673.85
-12708.2
-1671.25
-12375.8
-1668.7
-12044
-1666.21
-11712.5
-1663.78
-11381.6
-1661.41
-11051.2
-1659.1
-10721.1
-1656.84
-10391.6
-1654.65
-10062.4
-1652.52
-9733.7
-1650.45
-9405.37
-1648.44
-9077.44
-1646.5
-8749.88
-1644.61
-8422.69
-1642.79
-8095.85
-1641.04
-7769.35
-1639.35
-7443.17
-1637.72
-7117.31
-1636.16
-6791.75
-1634.66
-6466.47
-1633.23
-6141.47
-1631.87
-5816.73
-1630.57
-5492.23
-1629.34
-5167.97
-1628.18
-4843.93
-1627.09
-4520.1
-1626.06
-4196.45
-1625.1
-3872.99
-1624.22
-3549.69
-1623.4
-3226.53
-1622.65
-2903.52
-1621.98
-2580.62
-1621.38
-2257.83
-1620.85
-1935.13
-1620.4
-1612.5
-1620.02
-1289.94
-1619.72
-967.42
-1619.49
-644.933
-1619.33
-322.464
-1619.24
-1619.21
-1913.28
11928.1
-3808.75
11779.9
-5670.97
11492
-7487.12
11099.7
-9247.81
10645.5
-10947.6
10170.1
-12584.8
9707.42
-14160.7
9280.33
-15678.8
8901.53
-17144
8574.91
-18561.8
8298.38
-19937.8
8066.22
-21277
7871.22
-22584.2
7705.91
-23863.2
7563.39
-25117.2
7437.74
-26348.8
7324.1
-27559.8
7218.65
-28751.8
7118.5
-29925.7
7021.5
-31082.2
6926.18
-32221.9
6831.5
-33344.8
6736.83
-34451.3
6641.76
-35541.3
6546.08
-36614.9
6449.7
-37672
6352.6
-38712.6
6254.8
-39736.6
6156.35
-40744
6057.3
-41734.7
5957.74
-42708.6
5857.7
-43665.7
5757.28
-44606
5656.5
-45529.4
5555.45
-46435.9
5454.16
-47325.4
5352.69
-48198
5251.07
-49053.6
5149.36
-49892.3
5047.58
-50713.9
4945.79
-51518.6
4844.02
-52306.4
4742.3
-53077.2
4640.66
-53831.1
4539.15
-54568.1
4437.78
-55288.2
4336.59
-55991.5
4235.62
-56678
4134.89
-57347.8
4034.43
-58000.9
3934.26
-58637.4
3834.42
-59257.2
3734.94
-59860.6
3635.83
-60447.5
3537.13
-61018.1
3438.85
-61572.4
3341.04
-62110.4
3243.7
-62632.4
3146.87
-63138.2
3050.57
-63628.2
2954.82
-64102.3
2859.65
-64560.6
2765.07
-65003.3
2671.11
-65430.4
2577.79
-65842.2
2485.13
-66238.6
2393.15
-66619.8
2301.88
-66985.9
2211.32
-67337.1
2121.5
-67673.4
2032.44
-67995
1944.15
-68302.1
1856.66
-68594.8
1769.97
-68873.1
1684.11
-69137.3
1599.08
-69387.5
1514.91
-69623.8
1431.61
-69846.4
1349.19
-70055.5
1267.66