/*--------------------------------*- C++ -*----------------------------------*\
| =========                 |                                                 |
| \\      /  F ield         | OpenFOAM: The Open Source CFD Toolbox           |
|  \\    /   O peration     | Version:  2212                                  |
|   \\  /    A nd           | Website:  www.openfoam.com                      |
|    \\/     M anipulation  |                                                 |
\*---------------------------------------------------------------------------*/
FoamFile
{
    version     2.0;
    format      ascii;
    arch        "LSB;label=32;scalar=64";
    class       volScalarField;
    location    "780";
    object      p_rgh;
}
// * * * * * * * * * * * * * * * * * * * * * * * * * * * * * * * * * * * * * //

dimensions      [1 -1 -2 0 0 0 0];

internalField   nonuniform List<scalar> 
204800
(
50.1545
50.1506
50.1455
50.1385
50.1292
50.1176
50.1033
50.0864
50.0666
50.0442
50.0193
49.9919
49.962
49.9299
49.8954
49.8588
49.8199
49.7788
49.7356
49.6903
49.6429
49.5934
49.542
49.4885
49.4331
49.3757
49.3164
49.2552
49.1921
49.1272
49.0605
48.9921
48.9219
48.8499
48.7763
48.7011
48.6243
48.5458
48.4659
48.3845
48.3016
48.2172
48.1315
48.0444
47.956
47.8664
47.7755
47.6834
47.5902
47.4959
47.4005
47.3041
47.2066
47.1083
47.009
46.9088
46.8079
46.7061
46.6036
46.5003
46.3965
46.2919
46.1868
46.0812
45.975
45.8684
45.7613
45.6539
45.5461
45.4381
45.3297
45.2212
45.1124
45.0036
44.8946
44.7856
44.6765
44.5674
44.4584
44.3495
44.2407
44.1321
44.0236
43.9154
43.8074
43.6998
43.5924
43.4854
43.3788
43.2727
43.167
43.0617
42.957
42.8529
42.7493
42.6463
42.5439
42.4422
42.3412
42.2409
42.1413
42.0425
41.9445
41.8472
41.7508
41.6553
41.5606
41.4668
41.3739
41.2819
41.1909
41.1008
41.0118
40.9237
40.8366
40.7506
40.6656
40.5817
40.4988
40.417
40.3363
40.2567
40.1782
40.1009
40.0246
39.9495
39.8756
39.8028
39.7312
39.6607
39.5914
39.5233
39.4563
39.3906
39.326
39.2626
39.2004
39.1394
39.0796
39.021
38.9636
38.9074
38.8523
38.7985
38.7458
38.6943
38.644
38.5949
38.5469
38.5001
38.4545
38.41
38.3667
38.3245
38.2835
38.2436
38.2048
38.1671
38.1306
38.0951
38.0608
38.0275
37.9953
37.9641
37.934
37.905
37.877
37.85
37.824
37.7991
37.7751
37.7521
37.7301
37.709
37.6888
37.6697
37.6514
37.634
37.6175
37.602
37.5872
37.5734
37.5604
37.5482
37.5368
37.5263
37.5165
37.5075
37.4993
37.4918
37.4851
37.4791
37.4738
37.4692
37.4652
37.462
37.4594
37.4575
37.4561
37.4554
37.4553
37.4558
37.4569
37.4585
37.4607
37.4634
37.4666
37.4703
37.4745
37.4792
37.4844
37.49
37.4961
37.5025
37.5094
37.5167
37.5244
37.5325
37.5409
37.5497
37.5588
37.5682
37.5779
37.588
37.5983
37.6089
37.6198
37.6309
37.6423
37.6539
37.6657
37.6777
37.6899
37.7023
37.7149
37.7276
37.7405
37.7535
37.7666
37.7799
37.7933
37.8067
37.8203
37.8339
37.8476
37.8614
37.8752
37.889
37.9029
37.9168
37.9307
37.9446
37.9585
37.9724
37.9863
38.0001
38.0139
38.0276
38.0413
38.0549
38.0685
38.0819
38.0953
38.1086
38.1218
38.1349
38.1478
38.1607
38.1734
38.186
38.1984
38.2107
38.2228
38.2348
38.2466
38.2582
38.2697
38.2809
38.292
38.3029
38.3136
38.3241
38.3344
38.3444
38.3543
38.3639
38.3733
38.3825
38.3914
38.4001
38.4085
38.4167
38.4247
38.4324
38.4398
38.447
38.4539
38.4606
38.467
38.4731
38.4789
38.4845
38.4898
38.4948
38.4995
38.5039
38.5081
38.5119
38.5155
38.5188
38.5217
38.5244
38.5268
38.5289
38.5307
38.5322
38.5334
38.5343
38.5349
38.5352
50.073
50.0691
50.0624
50.0532
50.0415
50.0274
50.011
49.9923
49.9713
49.948
49.9224
49.8946
49.8645
49.8323
49.7977
49.761
49.7221
49.6811
49.6379
49.5927
49.5453
49.4959
49.4445
49.3912
49.3358
49.2785
49.2193
49.1582
49.0953
49.0305
48.9639
48.8956
48.8255
48.7537
48.6802
48.6051
48.5284
48.4501
48.3703
48.289
48.2062
48.122
48.0365
47.9496
47.8613
47.7718
47.6811
47.5892
47.4962
47.402
47.3068
47.2105
47.1133
47.0151
46.916
46.816
46.7152
46.6136
46.5113
46.4082
46.3045
46.2002
46.0953
45.9898
45.8838
45.7774
45.6705
45.5633
45.4557
45.3478
45.2397
45.1314
45.0228
44.9142
44.8054
44.6965
44.5877
44.4788
44.37
44.2613
44.1527
44.0442
43.936
43.828
43.7202
43.6127
43.5056
43.3988
43.2924
43.1864
43.0809
42.9759
42.8713
42.7674
42.664
42.5612
42.459
42.3575
42.2567
42.1565
42.0571
41.9585
41.8606
41.7636
41.6674
41.572
41.4775
41.3838
41.2911
41.1993
41.1085
41.0186
40.9297
40.8418
40.7549
40.669
40.5842
40.5004
40.4177
40.336
40.2555
40.176
40.0977
40.0205
39.9444
39.8695
39.7956
39.723
39.6515
39.5812
39.512
39.444
39.3772
39.3116
39.2471
39.1839
39.1218
39.0609
39.0012
38.9427
38.8854
38.8293
38.7744
38.7206
38.6681
38.6167
38.5665
38.5174
38.4696
38.4229
38.3773
38.333
38.2897
38.2476
38.2067
38.1668
38.1281
38.0906
38.0541
38.0187
37.9844
37.9512
37.919
37.888
37.8579
37.829
37.801
37.7741
37.7482
37.7232
37.6993
37.6764
37.6544
37.6333
37.6133
37.5941
37.5759
37.5586
37.5421
37.5266
37.5119
37.4981
37.4851
37.4729
37.4616
37.451
37.4413
37.4323
37.4241
37.4167
37.41
37.404
37.3987
37.3941
37.3902
37.387
37.3844
37.3825
37.3811
37.3804
37.3804
37.3808
37.3819
37.3835
37.3857
37.3884
37.3916
37.3953
37.3995
37.4042
37.4094
37.415
37.4211
37.4275
37.4344
37.4417
37.4494
37.4574
37.4658
37.4746
37.4837
37.4931
37.5028
37.5129
37.5232
37.5338
37.5446
37.5557
37.5671
37.5787
37.5904
37.6024
37.6146
37.627
37.6396
37.6523
37.6651
37.6781
37.6912
37.7045
37.7178
37.7313
37.7448
37.7584
37.7721
37.7858
37.7996
37.8134
37.8273
37.8412
37.855
37.8689
37.8828
37.8967
37.9105
37.9243
37.9381
37.9518
37.9655
37.9791
37.9926
38.006
38.0194
38.0327
38.0458
38.0589
38.0718
38.0846
38.0973
38.1099
38.1223
38.1345
38.1467
38.1586
38.1704
38.182
38.1934
38.2047
38.2157
38.2266
38.2373
38.2478
38.258
38.2681
38.2779
38.2875
38.2969
38.306
38.3149
38.3236
38.3321
38.3402
38.3482
38.3559
38.3633
38.3705
38.3774
38.384
38.3904
38.3965
38.4023
38.4079
38.4131
38.4181
38.4228
38.4273
38.4314
38.4353
38.4388
38.4421
38.4451
38.4477
38.4501
38.4522
38.454
38.4555
38.4567
38.4576
38.4582
38.4585
50.0545
50.0511
50.0446
50.0356
50.024
50.01
49.9936
49.9749
49.9538
49.9305
49.9049
49.8771
49.847
49.8146
49.7801
49.7433
49.7044
49.6633
49.6201
49.5748
49.5275
49.4781
49.4266
49.3732
49.3179
49.2606
49.2013
49.1402
49.0773
49.0125
48.9459
48.8775
48.8074
48.7356
48.6621
48.587
48.5103
48.432
48.3522
48.2709
48.1881
48.1039
48.0183
47.9314
47.8432
47.7537
47.663
47.5711
47.478
47.3838
47.2886
47.1923
47.0951
46.9969
46.8978
46.7978
46.697
46.5954
46.4931
46.3901
46.2863
46.182
46.0771
45.9716
45.8656
45.7592
45.6524
45.5451
45.4376
45.3297
45.2216
45.1132
45.0047
44.896
44.7872
44.6784
44.5695
44.4607
44.3519
44.2432
44.1346
44.0261
43.9179
43.8099
43.7021
43.5946
43.4875
43.3807
43.2743
43.1684
43.0629
42.9578
42.8533
42.7494
42.646
42.5432
42.441
42.3395
42.2387
42.1386
42.0392
41.9406
41.8428
41.7457
41.6495
41.5541
41.4596
41.366
41.2733
41.1816
41.0907
41.0009
40.912
40.8241
40.7372
40.6513
40.5665
40.4828
40.4001
40.3184
40.2379
40.1585
40.0802
40.003
39.9269
39.852
39.7782
39.7055
39.6341
39.5638
39.4946
39.4266
39.3599
39.2942
39.2298
39.1666
39.1045
39.0437
38.984
38.9255
38.8682
38.8121
38.7572
38.7035
38.651
38.5996
38.5494
38.5004
38.4526
38.4059
38.3604
38.316
38.2728
38.2307
38.1898
38.15
38.1113
38.0737
38.0373
38.0019
37.9676
37.9345
37.9023
37.8713
37.8413
37.8123
37.7844
37.7575
37.7316
37.7067
37.6828
37.6598
37.6379
37.6169
37.5968
37.5777
37.5595
37.5422
37.5257
37.5102
37.4955
37.4817
37.4688
37.4566
37.4453
37.4348
37.4251
37.4161
37.408
37.4005
37.3938
37.3879
37.3826
37.378
37.3741
37.3709
37.3684
37.3664
37.3651
37.3645
37.3644
37.3649
37.366
37.3676
37.3698
37.3725
37.3757
37.3795
37.3837
37.3884
37.3936
37.3992
37.4053
37.4117
37.4186
37.4259
37.4336
37.4417
37.4501
37.4589
37.468
37.4774
37.4872
37.4972
37.5075
37.5181
37.529
37.5401
37.5515
37.5631
37.5749
37.5869
37.5991
37.6114
37.624
37.6367
37.6496
37.6626
37.6757
37.689
37.7023
37.7158
37.7293
37.7429
37.7566
37.7704
37.7842
37.798
37.8118
37.8257
37.8396
37.8535
37.8674
37.8813
37.8951
37.9089
37.9227
37.9364
37.9501
37.9637
37.9772
37.9907
38.004
38.0173
38.0305
38.0435
38.0565
38.0693
38.082
38.0945
38.107
38.1192
38.1313
38.1433
38.1551
38.1667
38.1781
38.1894
38.2005
38.2113
38.222
38.2325
38.2427
38.2528
38.2626
38.2722
38.2816
38.2908
38.2997
38.3084
38.3168
38.325
38.3329
38.3406
38.348
38.3552
38.3621
38.3688
38.3751
38.3812
38.3871
38.3926
38.3979
38.4029
38.4076
38.412
38.4162
38.42
38.4236
38.4269
38.4298
38.4325
38.4349
38.437
38.4388
38.4403
38.4415
38.4424
38.443
38.4433
49.9816
49.978
49.971
49.9611
49.9484
49.9332
49.9158
49.8961
49.8743
49.8503
49.8242
49.7959
49.7655
49.733
49.6983
49.6614
49.6224
49.5812
49.538
49.4927
49.4453
49.3959
49.3445
49.2911
49.2358
49.1785
49.1194
49.0583
48.9954
48.9306
48.8641
48.7958
48.7257
48.654
48.5806
48.5055
48.4289
48.3507
48.271
48.1897
48.1071
48.023
47.9375
47.8507
47.7625
47.6731
47.5825
47.4907
47.3977
47.3037
47.2085
47.1124
47.0152
46.9171
46.8182
46.7183
46.6176
46.5161
46.4139
46.311
46.2074
46.1032
45.9984
45.893
45.7872
45.6809
45.5742
45.467
45.3596
45.2519
45.1439
45.0356
44.9272
44.8187
44.7101
44.6014
44.4926
44.3839
44.2752
44.1667
44.0582
43.9499
43.8418
43.7339
43.6263
43.5189
43.4119
43.3053
43.199
43.0932
42.9878
42.8829
42.7786
42.6747
42.5715
42.4688
42.3668
42.2654
42.1647
42.0648
41.9655
41.867
41.7693
41.6724
41.5763
41.4811
41.3867
41.2932
41.2007
41.109
41.0183
40.9286
40.8398
40.752
40.6653
40.5795
40.4948
40.4112
40.3286
40.2471
40.1667
40.0874
40.0092
39.9321
39.8561
39.7813
39.7076
39.6351
39.5637
39.4935
39.4245
39.3566
39.29
39.2244
39.1601
39.097
39.035
38.9743
38.9147
38.8563
38.7991
38.7431
38.6883
38.6347
38.5822
38.5309
38.4808
38.4319
38.3841
38.3376
38.2921
38.2478
38.2047
38.1627
38.1218
38.0821
38.0435
38.006
37.9696
37.9343
37.9001
37.867
37.8349
37.8039
37.774
37.7451
37.7172
37.6904
37.6645
37.6397
37.6158
37.593
37.5711
37.5501
37.5301
37.511
37.4928
37.4756
37.4592
37.4437
37.4291
37.4153
37.4024
37.3903
37.379
37.3685
37.3588
37.3499
37.3418
37.3344
37.3277
37.3218
37.3165
37.312
37.3081
37.3049
37.3024
37.3005
37.2992
37.2985
37.2985
37.299
37.3001
37.3018
37.304
37.3067
37.3099
37.3137
37.3179
37.3226
37.3278
37.3335
37.3395
37.346
37.3529
37.3602
37.3679
37.376
37.3844
37.3932
37.4023
37.4117
37.4215
37.4315
37.4418
37.4524
37.4633
37.4744
37.4858
37.4974
37.5092
37.5212
37.5334
37.5457
37.5583
37.571
37.5839
37.5969
37.61
37.6232
37.6366
37.65
37.6636
37.6772
37.6908
37.7046
37.7184
37.7322
37.746
37.7599
37.7738
37.7877
37.8015
37.8154
37.8292
37.843
37.8568
37.8705
37.8842
37.8977
37.9113
37.9247
37.9381
37.9513
37.9645
37.9775
37.9905
38.0033
38.0159
38.0285
38.0409
38.0532
38.0653
38.0772
38.089
38.1006
38.112
38.1233
38.1343
38.1452
38.1558
38.1663
38.1765
38.1866
38.1964
38.206
38.2154
38.2245
38.2334
38.2421
38.2505
38.2587
38.2667
38.2743
38.2818
38.2889
38.2958
38.3025
38.3088
38.3149
38.3207
38.3263
38.3316
38.3365
38.3413
38.3457
38.3498
38.3537
38.3572
38.3605
38.3635
38.3661
38.3685
38.3706
38.3724
38.3739
38.3751
38.376
38.3766
38.3769
49.9524
49.949
49.9422
49.9325
49.92
49.905
49.8876
49.868
49.8462
49.8222
49.7961
49.7678
49.7373
49.7047
49.6699
49.6329
49.5938
49.5526
49.5093
49.464
49.4165
49.3671
49.3156
49.2622
49.2068
49.1495
49.0903
49.0292
48.9663
48.9015
48.8349
48.7666
48.6965
48.6247
48.5513
48.4762
48.3996
48.3213
48.2416
48.1603
48.0776
47.9935
47.908
47.8212
47.733
47.6436
47.5529
47.4611
47.3681
47.274
47.1789
47.0827
46.9856
46.8875
46.7885
46.6886
46.5879
46.4864
46.3842
46.2812
46.1776
46.0734
45.9686
45.8632
45.7574
45.651
45.5443
45.4372
45.3297
45.222
45.114
45.0057
44.8973
44.7888
44.6801
44.5714
44.4627
44.354
44.2453
44.1367
44.0283
43.92
43.8118
43.704
43.5963
43.489
43.382
43.2754
43.1691
43.0633
42.9579
42.853
42.7487
42.6449
42.5416
42.439
42.3369
42.2356
42.1349
42.0349
41.9357
41.8372
41.7395
41.6426
41.5466
41.4513
41.357
41.2635
41.171
41.0793
40.9887
40.8989
40.8102
40.7224
40.6357
40.55
40.4653
40.3817
40.2991
40.2177
40.1373
40.058
39.9798
39.9027
39.8268
39.752
39.6784
39.6059
39.5345
39.4644
39.3954
39.3275
39.2609
39.1954
39.1311
39.068
39.0061
38.9454
38.8858
38.8275
38.7703
38.7143
38.6596
38.606
38.5535
38.5023
38.4522
38.4033
38.3556
38.3091
38.2637
38.2194
38.1763
38.1344
38.0935
38.0539
38.0153
37.9778
37.9415
37.9062
37.872
37.839
37.8069
37.776
37.7461
37.7172
37.6894
37.6626
37.6368
37.612
37.5881
37.5653
37.5434
37.5225
37.5025
37.4835
37.4653
37.4481
37.4318
37.4163
37.4017
37.388
37.3751
37.3631
37.3518
37.3414
37.3317
37.3228
37.3147
37.3073
37.3007
37.2948
37.2896
37.2851
37.2813
37.2781
37.2756
37.2737
37.2725
37.2718
37.2718
37.2724
37.2735
37.2752
37.2774
37.2802
37.2834
37.2872
37.2915
37.2962
37.3014
37.3071
37.3132
37.3197
37.3266
37.334
37.3417
37.3498
37.3582
37.367
37.3762
37.3856
37.3954
37.4054
37.4158
37.4264
37.4373
37.4484
37.4598
37.4714
37.4832
37.4953
37.5075
37.5199
37.5324
37.5452
37.5581
37.5711
37.5842
37.5975
37.6108
37.6243
37.6379
37.6515
37.6652
37.6789
37.6927
37.7066
37.7204
37.7343
37.7482
37.7621
37.776
37.7898
37.8037
37.8175
37.8313
37.845
37.8587
37.8723
37.8858
37.8993
37.9126
37.9259
37.9391
37.9521
37.9651
37.9779
37.9906
38.0031
38.0155
38.0278
38.0399
38.0519
38.0637
38.0753
38.0867
38.098
38.109
38.1199
38.1306
38.141
38.1513
38.1613
38.1712
38.1808
38.1901
38.1993
38.2082
38.2169
38.2253
38.2335
38.2414
38.2491
38.2566
38.2637
38.2706
38.2773
38.2836
38.2897
38.2956
38.3011
38.3064
38.3114
38.3161
38.3205
38.3246
38.3285
38.3321
38.3353
38.3383
38.341
38.3434
38.3455
38.3472
38.3487
38.3499
38.3508
38.3514
38.3517
49.8861
49.8827
49.8756
49.8656
49.8527
49.8372
49.8193
49.7993
49.777
49.7526
49.7261
49.6975
49.6667
49.6339
49.5989
49.5618
49.5225
49.4812
49.4379
49.3924
49.3449
49.2955
49.244
49.1905
49.1351
49.0778
49.0186
48.9575
48.8945
48.8298
48.7632
48.6949
48.6248
48.5531
48.4797
48.4046
48.328
48.2498
48.1701
48.0888
48.0062
47.9221
47.8366
47.7498
47.6617
47.5723
47.4817
47.3899
47.297
47.203
47.1079
47.0117
46.9146
46.8166
46.7176
46.6178
46.5172
46.4157
46.3136
46.2107
46.1071
46.003
45.8982
45.7929
45.6871
45.5809
45.4742
45.3672
45.2598
45.1521
45.0442
44.936
44.8277
44.7192
44.6106
44.502
44.3933
44.2847
44.1761
44.0676
43.9592
43.851
43.7429
43.6351
43.5276
43.4203
43.3134
43.2069
43.1007
42.995
42.8897
42.7849
42.6806
42.5769
42.4737
42.3712
42.2692
42.168
42.0674
41.9675
41.8683
41.7699
41.6723
41.5755
41.4795
41.3844
41.2902
41.1968
41.1043
41.0128
40.9222
40.8325
40.7439
40.6562
40.5696
40.4839
40.3994
40.3158
40.2334
40.152
40.0717
39.9925
39.9144
39.8374
39.7616
39.6869
39.6133
39.5409
39.4697
39.3996
39.3307
39.2629
39.1963
39.131
39.0667
39.0037
38.9419
38.8812
38.8218
38.7635
38.7064
38.6505
38.5958
38.5423
38.49
38.4388
38.3888
38.34
38.2924
38.2459
38.2006
38.1564
38.1134
38.0715
38.0307
37.9911
37.9526
37.9152
37.8789
37.8438
37.8097
37.7766
37.7447
37.7138
37.6839
37.6551
37.6274
37.6006
37.5749
37.5501
37.5264
37.5036
37.4818
37.4609
37.441
37.422
37.4039
37.3867
37.3705
37.3551
37.3405
37.3268
37.314
37.302
37.2908
37.2804
37.2708
37.2619
37.2539
37.2465
37.2399
37.2341
37.2289
37.2244
37.2206
37.2175
37.215
37.2132
37.212
37.2114
37.2114
37.212
37.2131
37.2149
37.2171
37.2199
37.2232
37.227
37.2313
37.2361
37.2413
37.247
37.2531
37.2597
37.2666
37.274
37.2817
37.2898
37.2983
37.3071
37.3162
37.3257
37.3355
37.3456
37.3559
37.3666
37.3775
37.3886
37.4
37.4116
37.4235
37.4355
37.4477
37.4601
37.4727
37.4855
37.4983
37.5114
37.5245
37.5378
37.5512
37.5646
37.5782
37.5918
37.6055
37.6193
37.6331
37.6469
37.6608
37.6747
37.6886
37.7025
37.7163
37.7302
37.7441
37.7579
37.7717
37.7854
37.7991
37.8127
37.8262
37.8396
37.853
37.8663
37.8794
37.8925
37.9054
37.9183
37.931
37.9435
37.9559
37.9682
37.9803
37.9922
38.004
38.0156
38.0271
38.0383
38.0494
38.0602
38.0709
38.0814
38.0916
38.1017
38.1115
38.1211
38.1305
38.1396
38.1485
38.1572
38.1656
38.1738
38.1818
38.1894
38.1969
38.204
38.2109
38.2176
38.2239
38.23
38.2359
38.2414
38.2467
38.2517
38.2564
38.2608
38.2649
38.2688
38.2724
38.2756
38.2786
38.2813
38.2837
38.2857
38.2875
38.289
38.2902
38.2911
38.2917
38.292
49.85
49.8466
49.8398
49.83
49.8172
49.8019
49.7842
49.7642
49.742
49.7176
49.691
49.6624
49.6315
49.5986
49.5635
49.5263
49.487
49.4456
49.4022
49.3566
49.3091
49.2595
49.208
49.1545
49.099
49.0416
48.9823
48.9212
48.8582
48.7934
48.7267
48.6584
48.5883
48.5165
48.443
48.3679
48.2912
48.213
48.1332
48.0519
47.9692
47.8851
47.7996
47.7127
47.6245
47.5351
47.4445
47.3527
47.2597
47.1656
47.0705
46.9743
46.8772
46.7791
46.6801
46.5802
46.4796
46.3781
46.2759
46.173
46.0694
45.9652
45.8604
45.7551
45.6493
45.543
45.4363
45.3292
45.2218
45.1141
45.0061
44.8979
44.7896
44.6811
44.5725
44.4638
44.3551
44.2465
44.1379
44.0293
43.9209
43.8127
43.7047
43.5968
43.4893
43.382
43.2751
43.1685
43.0623
42.9566
42.8513
42.7465
42.6422
42.5385
42.4353
42.3328
42.2308
42.1296
42.029
41.9291
41.83
41.7316
41.634
41.5372
41.4412
41.3461
41.2518
41.1585
41.066
40.9745
40.8839
40.7943
40.7056
40.618
40.5314
40.4458
40.3612
40.2777
40.1953
40.1139
40.0336
39.9545
39.8764
39.7995
39.7237
39.649
39.5755
39.5031
39.4319
39.3618
39.2929
39.2252
39.1587
39.0933
39.0292
38.9662
38.9044
38.8438
38.7844
38.7261
38.6691
38.6132
38.5586
38.5051
38.4528
38.4017
38.3518
38.303
38.2554
38.209
38.1637
38.1196
38.0766
38.0347
37.994
37.9545
37.916
37.8787
37.8424
37.8073
37.7733
37.7403
37.7084
37.6775
37.6478
37.619
37.5913
37.5646
37.5389
37.5142
37.4905
37.4678
37.446
37.4252
37.4053
37.3864
37.3683
37.3512
37.335
37.3196
37.3051
37.2915
37.2787
37.2667
37.2556
37.2452
37.2357
37.2269
37.2189
37.2116
37.205
37.1992
37.1941
37.1897
37.1859
37.1828
37.1804
37.1786
37.1775
37.1769
37.177
37.1776
37.1788
37.1805
37.1828
37.1857
37.189
37.1929
37.1972
37.202
37.2073
37.213
37.2192
37.2258
37.2327
37.2401
37.2479
37.2561
37.2646
37.2734
37.2826
37.2921
37.3019
37.312
37.3224
37.3331
37.344
37.3552
37.3666
37.3783
37.3902
37.4022
37.4145
37.4269
37.4395
37.4523
37.4652
37.4783
37.4914
37.5047
37.5181
37.5316
37.5452
37.5589
37.5726
37.5864
37.6002
37.614
37.6279
37.6418
37.6558
37.6697
37.6836
37.6975
37.7114
37.7252
37.739
37.7527
37.7664
37.78
37.7936
37.8071
37.8204
37.8337
37.8469
37.86
37.8729
37.8858
37.8985
37.9111
37.9235
37.9358
37.9479
37.9598
37.9716
37.9833
37.9947
38.006
38.017
38.0279
38.0386
38.0491
38.0593
38.0694
38.0792
38.0888
38.0982
38.1074
38.1163
38.125
38.1334
38.1416
38.1496
38.1572
38.1647
38.1718
38.1788
38.1854
38.1918
38.1979
38.2037
38.2093
38.2145
38.2195
38.2242
38.2287
38.2328
38.2367
38.2402
38.2435
38.2465
38.2491
38.2515
38.2536
38.2554
38.2569
38.2581
38.259
38.2596
38.2599
49.7888
49.7854
49.7785
49.7686
49.7557
49.7403
49.7224
49.7021
49.6797
49.655
49.6282
49.5993
49.5683
49.5352
49.4999
49.4626
49.4231
49.3816
49.338
49.2924
49.2448
49.1951
49.1435
49.09
49.0344
48.977
48.9177
48.8565
48.7934
48.7286
48.6619
48.5935
48.5234
48.4516
48.3781
48.303
48.2262
48.148
48.0682
47.9869
47.9042
47.82
47.7345
47.6477
47.5595
47.4701
47.3794
47.2876
47.1946
47.1005
47.0054
46.9092
46.8121
46.714
46.615
46.5152
46.4145
46.3131
46.2109
46.1079
46.0044
45.9002
45.7954
45.6901
45.5843
45.478
45.3713
45.2643
45.1569
45.0492
44.9412
44.8331
44.7248
44.6163
44.5077
44.3991
44.2904
44.1818
44.0732
43.9647
43.8563
43.7481
43.6401
43.5323
43.4248
43.3176
43.2107
43.1042
42.998
42.8923
42.7871
42.6823
42.5781
42.4744
42.3713
42.2688
42.1669
42.0656
41.9651
41.8653
41.7662
41.6679
41.5703
41.4736
41.3776
41.2826
41.1884
41.0951
41.0027
40.9112
40.8207
40.7311
40.6426
40.555
40.4684
40.3829
40.2984
40.2149
40.1326
40.0513
39.9711
39.892
39.814
39.7371
39.6613
39.5867
39.5133
39.441
39.3698
39.2999
39.231
39.1634
39.0969
39.0317
38.9676
38.9047
38.8429
38.7824
38.7231
38.6649
38.6079
38.5522
38.4976
38.4442
38.3919
38.3409
38.291
38.2423
38.1948
38.1485
38.1033
38.0592
38.0163
37.9745
37.9339
37.8944
37.856
37.8188
37.7826
37.7475
37.7135
37.6806
37.6488
37.618
37.5883
37.5596
37.532
37.5054
37.4797
37.4551
37.4315
37.4088
37.3871
37.3663
37.3465
37.3277
37.3097
37.2926
37.2765
37.2612
37.2467
37.2332
37.2204
37.2085
37.1974
37.1871
37.1776
37.1689
37.1609
37.1537
37.1472
37.1414
37.1364
37.132
37.1283
37.1253
37.1229
37.1212
37.1201
37.1195
37.1196
37.1203
37.1216
37.1234
37.1257
37.1286
37.132
37.1359
37.1402
37.1451
37.1504
37.1562
37.1624
37.169
37.176
37.1834
37.1912
37.1994
37.208
37.2168
37.2261
37.2356
37.2455
37.2556
37.266
37.2767
37.2877
37.2989
37.3103
37.322
37.3339
37.346
37.3583
37.3707
37.3834
37.3962
37.4091
37.4222
37.4354
37.4487
37.4621
37.4756
37.4892
37.5029
37.5166
37.5304
37.5443
37.5582
37.5721
37.586
37.5999
37.6139
37.6278
37.6417
37.6556
37.6694
37.6832
37.697
37.7107
37.7243
37.7379
37.7514
37.7648
37.7781
37.7913
37.8043
37.8173
37.8301
37.8429
37.8554
37.8679
37.8802
37.8923
37.9043
37.9161
37.9277
37.9391
37.9504
37.9615
37.9724
37.983
37.9935
38.0038
38.0139
38.0237
38.0333
38.0427
38.0519
38.0608
38.0695
38.0779
38.0861
38.0941
38.1017
38.1092
38.1164
38.1233
38.1299
38.1363
38.1424
38.1482
38.1538
38.1591
38.1641
38.1688
38.1732
38.1773
38.1812
38.1847
38.188
38.191
38.1937
38.1961
38.1982
38.2
38.2015
38.2027
38.2036
38.2042
38.2045
49.7482
49.7449
49.7382
49.7285
49.7158
49.7005
49.6827
49.6626
49.6402
49.6156
49.5887
49.5598
49.5287
49.4955
49.4601
49.4227
49.3831
49.3415
49.2978
49.2521
49.2044
49.1547
49.103
49.0493
48.9937
48.9362
48.8768
48.8155
48.7524
48.6874
48.6207
48.5522
48.482
48.4101
48.3365
48.2614
48.1846
48.1062
48.0264
47.945
47.8622
47.778
47.6924
47.6055
47.5173
47.4278
47.3371
47.2452
47.1521
47.058
46.9628
46.8665
46.7693
46.6712
46.5721
46.4722
46.3715
46.27
46.1677
46.0647
45.9611
45.8569
45.752
45.6467
45.5408
45.4345
45.3277
45.2206
45.1132
45.0054
44.8974
44.7892
44.6808
44.5723
44.4637
44.355
44.2463
44.1376
44.029
43.9205
43.8121
43.7038
43.5958
43.488
43.3804
43.2731
43.1662
43.0597
42.9535
42.8478
42.7425
42.6377
42.5335
42.4297
42.3266
42.2241
42.1222
42.021
41.9204
41.8206
41.7215
41.6231
41.5256
41.4288
41.3329
41.2378
41.1436
41.0503
40.958
40.8665
40.776
40.6864
40.5979
40.5103
40.4237
40.3382
40.2537
40.1703
40.088
40.0067
39.9265
39.8474
39.7695
39.6926
39.6169
39.5423
39.4689
39.3966
39.3255
39.2556
39.1868
39.1192
39.0528
38.9875
38.9235
38.8606
38.7989
38.7384
38.6791
38.621
38.5641
38.5084
38.4539
38.4005
38.3483
38.2973
38.2475
38.1989
38.1514
38.1051
38.06
38.016
37.9731
37.9314
37.8908
37.8514
37.8131
37.7759
37.7398
37.7048
37.6708
37.638
37.6062
37.5755
37.5459
37.5172
37.4896
37.4631
37.4375
37.413
37.3894
37.3668
37.3451
37.3245
37.3047
37.2859
37.268
37.251
37.2349
37.2197
37.2053
37.1918
37.1791
37.1673
37.1562
37.146
37.1366
37.1279
37.12
37.1128
37.1064
37.1007
37.0957
37.0914
37.0877
37.0848
37.0824
37.0808
37.0797
37.0793
37.0794
37.0801
37.0814
37.0833
37.0857
37.0886
37.0921
37.096
37.1004
37.1053
37.1107
37.1165
37.1228
37.1295
37.1365
37.144
37.1519
37.1601
37.1687
37.1776
37.1869
37.1965
37.2064
37.2166
37.227
37.2378
37.2488
37.26
37.2715
37.2832
37.2952
37.3073
37.3196
37.3321
37.3448
37.3576
37.3706
37.3837
37.397
37.4103
37.4238
37.4373
37.4509
37.4647
37.4784
37.4923
37.5061
37.52
37.534
37.5479
37.5619
37.5759
37.5898
37.6038
37.6177
37.6315
37.6454
37.6592
37.6729
37.6866
37.7001
37.7136
37.7271
37.7404
37.7536
37.7667
37.7797
37.7925
37.8053
37.8179
37.8303
37.8426
37.8548
37.8668
37.8786
37.8902
37.9017
37.913
37.9241
37.935
37.9457
37.9562
37.9665
37.9765
37.9864
37.996
38.0054
38.0146
38.0235
38.0322
38.0407
38.0489
38.0568
38.0645
38.072
38.0792
38.0861
38.0927
38.0991
38.1052
38.1111
38.1166
38.1219
38.1269
38.1316
38.1361
38.1402
38.1441
38.1477
38.1509
38.1539
38.1566
38.159
38.1611
38.1629
38.1644
38.1656
38.1665
38.1671
38.1674
49.6909
49.6876
49.6809
49.6712
49.6585
49.6432
49.6254
49.6051
49.5826
49.5578
49.5309
49.5018
49.4705
49.4371
49.4016
49.364
49.3243
49.2826
49.2388
49.193
49.1452
49.0953
49.0435
48.9898
48.9341
48.8765
48.817
48.7556
48.6924
48.6274
48.5606
48.4921
48.4218
48.3498
48.2762
48.201
48.1241
48.0457
47.9658
47.8844
47.8016
47.7173
47.6316
47.5447
47.4564
47.3668
47.2761
47.1841
47.091
46.9969
46.9016
46.8053
46.7081
46.6099
46.5108
46.4108
46.3101
46.2085
46.1062
46.0032
45.8995
45.7952
45.6904
45.585
45.4791
45.3727
45.2659
45.1588
45.0513
44.9436
44.8355
44.7273
44.6189
44.5104
44.4017
44.293
44.1843
44.0756
43.967
43.8584
43.75
43.6418
43.5337
43.4259
43.3183
43.211
43.1041
42.9976
42.8914
42.7857
42.6804
42.5756
42.4714
42.3677
42.2645
42.162
42.0601
41.9589
41.8584
41.7586
41.6595
41.5612
41.4636
41.3669
41.271
41.176
41.0818
40.9885
40.8962
40.8047
40.7143
40.6247
40.5362
40.4487
40.3622
40.2767
40.1923
40.1089
40.0266
39.9453
39.8652
39.7862
39.7083
39.6315
39.5558
39.4813
39.4079
39.3357
39.2646
39.1947
39.126
39.0585
38.9921
38.9269
38.863
38.8002
38.7385
38.6781
38.6189
38.5608
38.504
38.4483
38.3939
38.3406
38.2885
38.2376
38.1878
38.1392
38.0918
38.0456
38.0005
37.9566
37.9138
37.8722
37.8317
37.7923
37.7541
37.717
37.6809
37.646
37.6122
37.5794
37.5477
37.5171
37.4875
37.4589
37.4314
37.4049
37.3794
37.355
37.3315
37.3089
37.2874
37.2668
37.2471
37.2283
37.2105
37.1936
37.1776
37.1624
37.1481
37.1347
37.1221
37.1103
37.0993
37.0892
37.0798
37.0712
37.0634
37.0563
37.0499
37.0443
37.0393
37.0351
37.0315
37.0286
37.0263
37.0247
37.0237
37.0233
37.0236
37.0244
37.0257
37.0276
37.0301
37.0331
37.0366
37.0406
37.0451
37.05
37.0554
37.0613
37.0676
37.0743
37.0815
37.089
37.0969
37.1052
37.1138
37.1228
37.1321
37.1418
37.1517
37.1619
37.1724
37.1832
37.1943
37.2056
37.2171
37.2289
37.2408
37.253
37.2654
37.2779
37.2906
37.3035
37.3165
37.3296
37.3429
37.3563
37.3698
37.3834
37.397
37.4108
37.4246
37.4385
37.4524
37.4663
37.4803
37.4942
37.5082
37.5222
37.5362
37.5502
37.5641
37.578
37.5919
37.6057
37.6194
37.6331
37.6467
37.6602
37.6737
37.687
37.7002
37.7134
37.7264
37.7393
37.752
37.7646
37.7771
37.7894
37.8016
37.8136
37.8254
37.8371
37.8486
37.8599
37.871
37.8819
37.8926
37.9031
37.9134
37.9235
37.9334
37.943
37.9524
37.9616
37.9705
37.9792
37.9877
37.9959
38.0039
38.0116
38.019
38.0262
38.0332
38.0398
38.0462
38.0523
38.0582
38.0637
38.069
38.074
38.0788
38.0832
38.0873
38.0912
38.0948
38.098
38.101
38.1037
38.1061
38.1082
38.11
38.1115
38.1127
38.1136
38.1142
38.1145
49.6477
49.6445
49.6379
49.6283
49.6158
49.6007
49.5829
49.5628
49.5403
49.5155
49.4885
49.4594
49.428
49.3946
49.359
49.3213
49.2815
49.2397
49.1958
49.1499
49.102
49.052
49.0001
48.9463
48.8905
48.8328
48.7732
48.7117
48.6484
48.5833
48.5164
48.4477
48.3773
48.3053
48.2315
48.1562
48.0793
48.0008
47.9207
47.8392
47.7563
47.6719
47.5862
47.4991
47.4107
47.3211
47.2302
47.1382
47.045
46.9507
46.8554
46.759
46.6617
46.5634
46.4642
46.3641
46.2633
46.1616
46.0592
45.9561
45.8524
45.748
45.643
45.5375
45.4316
45.3251
45.2183
45.111
45.0035
44.8956
44.7875
44.6792
44.5707
44.4621
44.3534
44.2446
44.1359
44.0271
43.9184
43.8098
43.7013
43.593
43.4849
43.377
43.2693
43.162
43.0551
42.9484
42.8422
42.7365
42.6311
42.5263
42.422
42.3183
42.2151
42.1126
42.0106
41.9094
41.8088
41.709
41.6099
41.5115
41.414
41.3172
41.2213
41.1263
41.0321
40.9388
40.8465
40.755
40.6645
40.575
40.4865
40.399
40.3125
40.227
40.1426
40.0592
39.9769
39.8957
39.8156
39.7365
39.6587
39.5819
39.5062
39.4318
39.3584
39.2862
39.2152
39.1453
39.0767
39.0092
38.9428
38.8777
38.8137
38.751
38.6894
38.629
38.5699
38.5119
38.4551
38.3995
38.345
38.2918
38.2398
38.1889
38.1392
38.0907
38.0434
37.9972
37.9522
37.9083
37.8656
37.824
37.7836
37.7443
37.7061
37.6691
37.6331
37.5983
37.5645
37.5318
37.5002
37.4696
37.4401
37.4116
37.3842
37.3578
37.3323
37.3079
37.2845
37.262
37.2406
37.22
37.2004
37.1818
37.164
37.1472
37.1312
37.1161
37.1019
37.0886
37.076
37.0643
37.0534
37.0434
37.0341
37.0255
37.0178
37.0108
37.0045
36.9989
36.994
36.9899
36.9864
36.9835
36.9814
36.9798
36.9789
36.9786
36.9789
36.9797
36.9811
36.9831
36.9857
36.9887
36.9923
36.9964
37.0009
37.0059
37.0114
37.0174
37.0237
37.0305
37.0377
37.0453
37.0533
37.0616
37.0703
37.0794
37.0887
37.0984
37.1084
37.1187
37.1293
37.1401
37.1512
37.1626
37.1742
37.186
37.198
37.2102
37.2226
37.2352
37.248
37.2609
37.274
37.2872
37.3005
37.3139
37.3275
37.3411
37.3548
37.3686
37.3824
37.3963
37.4103
37.4243
37.4383
37.4523
37.4663
37.4803
37.4944
37.5084
37.5223
37.5363
37.5502
37.564
37.5778
37.5915
37.6051
37.6187
37.6322
37.6455
37.6588
37.672
37.685
37.6979
37.7107
37.7233
37.7358
37.7482
37.7604
37.7724
37.7842
37.7959
37.8074
37.8187
37.8299
37.8408
37.8515
37.8621
37.8724
37.8825
37.8924
37.902
37.9115
37.9207
37.9296
37.9383
37.9468
37.955
37.963
37.9707
37.9782
37.9854
37.9924
37.999
38.0054
38.0116
38.0174
38.023
38.0283
38.0333
38.038
38.0425
38.0466
38.0505
38.0541
38.0573
38.0603
38.063
38.0654
38.0675
38.0693
38.0708
38.072
38.0729
38.0735
38.0738
49.5933
49.5901
49.5836
49.5741
49.5616
49.5465
49.5287
49.5085
49.486
49.4612
49.4341
49.4048
49.3733
49.3397
49.304
49.2662
49.2263
49.1844
49.1403
49.0943
49.0463
48.9962
48.9442
48.8902
48.8343
48.7765
48.7168
48.6552
48.5918
48.5266
48.4596
48.3908
48.3203
48.2482
48.1744
48.0989
48.0219
47.9433
47.8632
47.7816
47.6985
47.6141
47.5282
47.4411
47.3526
47.2629
47.1719
47.0798
46.9865
46.8921
46.7967
46.7003
46.6028
46.5045
46.4052
46.3051
46.2041
46.1024
45.9999
45.8967
45.7929
45.6884
45.5834
45.4778
45.3717
45.2652
45.1583
45.051
44.9434
44.8355
44.7273
44.6189
44.5104
44.4017
44.2929
44.1841
44.0752
43.9664
43.8577
43.749
43.6405
43.5321
43.4239
43.316
43.2083
43.101
42.994
42.8873
42.7811
42.6752
42.5699
42.4651
42.3607
42.257
42.1538
42.0512
41.9493
41.848
41.7474
41.6476
41.5484
41.4501
41.3525
41.2558
41.1599
41.0648
40.9706
40.8774
40.785
40.6936
40.6031
40.5136
40.4251
40.3376
40.2511
40.1656
40.0812
39.9979
39.9156
39.8344
39.7544
39.6754
39.5975
39.5208
39.4452
39.3707
39.2974
39.2253
39.1543
39.0845
39.0159
38.9484
38.8821
38.8171
38.7532
38.6905
38.6289
38.5686
38.5095
38.4516
38.3948
38.3393
38.2849
38.2318
38.1798
38.129
38.0794
38.031
37.9837
37.9376
37.8927
37.8489
37.8062
37.7648
37.7244
37.6852
37.6471
37.6101
37.5742
37.5394
37.5057
37.4731
37.4416
37.4111
37.3817
37.3533
37.3259
37.2996
37.2743
37.2499
37.2266
37.2042
37.1828