/*--------------------------------*- C++ -*----------------------------------*\
| =========                 |                                                 |
| \\      /  F ield         | OpenFOAM: The Open Source CFD Toolbox           |
|  \\    /   O peration     | Version:  2212                                  |
|   \\  /    A nd           | Website:  www.openfoam.com                      |
|    \\/     M anipulation  |                                                 |
\*---------------------------------------------------------------------------*/
FoamFile
{
    version     2.0;
    format      ascii;
    arch        "LSB;label=32;scalar=64";
    class       volScalarField;
    location    "890";
    object      p_rgh;
}
// * * * * * * * * * * * * * * * * * * * * * * * * * * * * * * * * * * * * * //

dimensions      [1 -1 -2 0 0 0 0];

internalField   nonuniform List<scalar> 
204800
(
52.0914
52.0895
52.0869
52.0828
52.0774
52.0703
52.0615
52.0508
52.0383
52.024
52.0079
51.9902
51.9708
51.9499
51.9274
51.9034
51.8779
51.851
51.8226
51.7928
51.7616
51.729
51.6949
51.6596
51.6228
51.5847
51.5453
51.5045
51.4625
51.4191
51.3745
51.3286
51.2815
51.2332
51.1837
51.133
51.0811
51.0281
50.974
50.9187
50.8624
50.805
50.7465
50.6871
50.6266
50.5652
50.5027
50.4394
50.3751
50.31
50.244
50.1771
50.1094
50.0409
49.9717
49.9016
49.8309
49.7594
49.6873
49.6145
49.5411
49.467
49.3924
49.3172
49.2415
49.1653
49.0886
49.0114
48.9338
48.8558
48.7774
48.6987
48.6196
48.5402
48.4606
48.3807
48.3005
48.2202
48.1396
48.0589
47.9781
47.8971
47.8161
47.735
47.6538
47.5727
47.4915
47.4104
47.3293
47.2483
47.1674
47.0866
47.0059
46.9254
46.8451
46.765
46.6851
46.6054
46.5261
46.447
46.3682
46.2897
46.2116
46.1338
46.0565
45.9795
45.9029
45.8268
45.7511
45.6759
45.6011
45.5269
45.4532
45.38
45.3073
45.2353
45.1637
45.0928
45.0225
44.9528
44.8837
44.8152
44.7474
44.6802
44.6138
44.5479
44.4828
44.4184
44.3547
44.2917
44.2295
44.1679
44.1071
44.0471
43.9878
43.9293
43.8715
43.8145
43.7583
43.7029
43.6483
43.5944
43.5414
43.4891
43.4377
43.387
43.3372
43.2882
43.24
43.1926
43.146
43.1002
43.0553
43.0111
42.9678
42.9253
42.8836
42.8427
42.8026
42.7634
42.7249
42.6872
42.6504
42.6143
42.579
42.5445
42.5108
42.4779
42.4457
42.4143
42.3837
42.3539
42.3248
42.2964
42.2688
42.242
42.2159
42.1905
42.1658
42.1418
42.1186
42.096
42.0742
42.053
42.0325
42.0127
41.9936
41.9751
41.9572
41.94
41.9234
41.9075
41.8922
41.8774
41.8633
41.8497
41.8368
41.8244
41.8126
41.8013
41.7906
41.7804
41.7707
41.7616
41.7529
41.7448
41.7371
41.73
41.7233
41.717
41.7112
41.7059
41.701
41.6965
41.6924
41.6887
41.6855
41.6826
41.6801
41.6779
41.6761
41.6747
41.6736
41.6729
41.6724
41.6723
41.6724
41.6729
41.6737
41.6747
41.676
41.6775
41.6793
41.6814
41.6837
41.6862
41.6889
41.6918
41.6949
41.6982
41.7017
41.7054
41.7092
41.7132
41.7174
41.7217
41.7261
41.7306
41.7353
41.7401
41.745
41.7499
41.755
41.7602
41.7654
41.7707
41.7761
41.7815
41.787
41.7925
41.798
41.8036
41.8092
41.8148
41.8205
41.8261
41.8317
41.8374
41.843
41.8486
41.8542
41.8598
41.8653
41.8708
41.8762
41.8816
41.887
41.8923
41.8975
41.9027
41.9078
41.9128
41.9177
41.9226
41.9274
41.9321
41.9367
41.9412
41.9456
41.9499
41.9541
41.9582
41.9621
41.966
41.9697
41.9733
41.9768
41.9802
41.9834
41.9865
41.9895
41.9923
41.995
41.9976
42
42.0023
42.0044
42.0064
42.0082
42.0099
42.0114
42.0128
42.014
42.0151
42.0161
42.0168
42.0175
42.0179
42.0182
42.0184
52.0028
52.0006
51.9967
51.9909
51.9836
51.9746
51.964
51.952
51.9384
51.9233
51.9067
51.8886
51.869
51.8479
51.8253
51.8013
51.7758
51.7489
51.7205
51.6907
51.6596
51.627
51.593
51.5577
51.521
51.4829
51.4436
51.4029
51.3609
51.3176
51.2731
51.2273
51.1803
51.132
51.0826
51.032
50.9802
50.9273
50.8733
50.8181
50.7619
50.7046
50.6462
50.5869
50.5265
50.4652
50.4029
50.3397
50.2755
50.2105
50.1446
50.0778
50.0103
49.9419
49.8728
49.8029
49.7323
49.6609
49.5889
49.5163
49.443
49.3691
49.2946
49.2195
49.144
49.0679
48.9913
48.9143
48.8368
48.759
48.6807
48.6021
48.5232
48.444
48.3645
48.2847
48.2047
48.1245
48.0441
47.9636
47.8829
47.8021
47.7212
47.6402
47.5592
47.4782
47.3972
47.3162
47.2353
47.1544
47.0737
46.993
46.9125
46.8321
46.752
46.672
46.5923
46.5128
46.4335
46.3546
46.276
46.1976
46.1197
46.042
45.9648
45.888
45.8115
45.7356
45.66
45.5849
45.5103
45.4363
45.3627
45.2896
45.2171
45.1452
45.0738
45.003
44.9328
44.8632
44.7942
44.7259
44.6582
44.5912
44.5248
44.4591
44.3942
44.3299
44.2663
44.2034
44.1413
44.0798
44.0192
43.9592
43.9001
43.8416
43.784
43.7271
43.671
43.6157
43.5612
43.5074
43.4545
43.4023
43.351
43.3005
43.2507
43.2018
43.1537
43.1064
43.0599
43.0142
42.9693
42.9253
42.882
42.8396
42.798
42.7572
42.7172
42.678
42.6396
42.602
42.5652
42.5292
42.494
42.4596
42.4259
42.3931
42.361
42.3297
42.2991
42.2693
42.2403
42.212
42.1845
42.1577
42.1316
42.1063
42.0816
42.0577
42.0345
42.012
41.9902
41.9691
41.9487
41.9289
41.9098
41.8913
41.8735
41.8563
41.8398
41.8239
41.8086
41.7939
41.7798
41.7663
41.7533
41.741
41.7292
41.7179
41.7072
41.6971
41.6874
41.6783
41.6697
41.6616
41.6539
41.6468
41.6401
41.6339
41.6281
41.6228
41.6179
41.6134
41.6093
41.6057
41.6024
41.5995
41.597
41.5949
41.5931
41.5917
41.5906
41.5898
41.5894
41.5893
41.5894
41.5899
41.5907
41.5917
41.593
41.5946
41.5964
41.5984
41.6007
41.6032
41.6059
41.6088
41.6119
41.6152
41.6187
41.6224
41.6262
41.6302
41.6344
41.6386
41.6431
41.6476
41.6523
41.657
41.6619
41.6669
41.672
41.6771
41.6823
41.6876
41.693
41.6984
41.7038
41.7094
41.7149
41.7205
41.7261
41.7317
41.7373
41.7429
41.7486
41.7542
41.7598
41.7654
41.771
41.7765
41.7821
41.7875
41.793
41.7984
41.8037
41.809
41.8142
41.8194
41.8245
41.8295
41.8344
41.8393
41.8441
41.8488
41.8533
41.8578
41.8622
41.8665
41.8707
41.8748
41.8787
41.8826
41.8863
41.8899
41.8934
41.8968
41.9
41.9031
41.9061
41.9089
41.9116
41.9141
41.9165
41.9188
41.9209
41.9229
41.9247
41.9264
41.928
41.9294
41.9306
41.9317
41.9326
41.9334
41.934
41.9345
41.9348
41.9349
51.984
51.9819
51.978
51.9722
51.9648
51.9559
51.9453
51.9333
51.9197
51.9046
51.8879
51.8698
51.8501
51.829
51.8064
51.7824
51.7569
51.7299
51.7015
51.6718
51.6405
51.608
51.574
51.5386
51.5019
51.4639
51.4245
51.3838
51.3418
51.2985
51.254
51.2082
51.1612
51.1129
51.0635
51.0129
50.9611
50.9082
50.8542
50.799
50.7428
50.6855
50.6272
50.5678
50.5074
50.4461
50.3838
50.3206
50.2564
50.1914
50.1255
50.0588
49.9912
49.9229
49.8537
49.7838
49.7132
49.6419
49.5699
49.4973
49.424
49.3501
49.2756
49.2005
49.125
49.0489
48.9723
48.8953
48.8179
48.74
48.6618
48.5832
48.5043
48.4251
48.3456
48.2658
48.1858
48.1056
48.0252
47.9447
47.864
47.7832
47.7023
47.6214
47.5404
47.4594
47.3784
47.2974
47.2165
47.1356
47.0549
46.9742
46.8937
46.8134
46.7332
46.6533
46.5736
46.4941
46.4149
46.3359
46.2573
46.179
46.101
46.0234
45.9462
45.8694
45.793
45.717
45.6414
45.5664
45.4918
45.4177
45.3442
45.2711
45.1986
45.1267
45.0553
44.9845
44.9143
44.8448
44.7758
44.7075
44.6398
44.5728
44.5065
44.4408
44.3758
44.3116
44.248
44.1851
44.123
44.0616
44.0009
43.941
43.8819
43.8235
43.7658
43.709
43.6529
43.5976
43.5431
43.4893
43.4364
43.3843
43.3329
43.2824
43.2327
43.1838
43.1357
43.0884
43.0419
42.9963
42.9514
42.9074
42.8641
42.8217
42.7801
42.7393
42.6994
42.6602
42.6218
42.5842
42.5474
42.5115
42.4763
42.4419
42.4082
42.3754
42.3433
42.312
42.2815
42.2517
42.2227
42.1944
42.1669
42.1401
42.114
42.0887
42.0641
42.0402
42.017
41.9945
41.9727
41.9516
41.9312
41.9114
41.8923
41.8739
41.8561
41.8389
41.8224
41.8065
41.7912
41.7765
41.7624
41.7489
41.736
41.7237
41.7119
41.7007
41.69
41.6798
41.6702
41.6611
41.6525
41.6443
41.6367
41.6296
41.6229
41.6167
41.6109
41.6056
41.6007
41.5963
41.5922
41.5886
41.5853
41.5824
41.5799
41.5778
41.5761
41.5746
41.5736
41.5728
41.5724
41.5723
41.5724
41.5729
41.5737
41.5747
41.576
41.5776
41.5794
41.5815
41.5837
41.5862
41.589
41.5919
41.595
41.5983
41.6018
41.6055
41.6094
41.6133
41.6175
41.6218
41.6262
41.6308
41.6354
41.6402
41.6451
41.6501
41.6551
41.6603
41.6655
41.6708
41.6762
41.6816
41.6871
41.6926
41.6981
41.7037
41.7093
41.7149
41.7205
41.7262
41.7318
41.7374
41.7431
41.7487
41.7542
41.7598
41.7653
41.7708
41.7762
41.7816
41.787
41.7923
41.7975
41.8027
41.8078
41.8128
41.8177
41.8226
41.8274
41.8321
41.8366
41.8411
41.8455
41.8498
41.854
41.8581
41.8621
41.8659
41.8696
41.8732
41.8767
41.8801
41.8833
41.8864
41.8894
41.8922
41.8949
41.8975
41.8999
41.9021
41.9043
41.9062
41.9081
41.9098
41.9113
41.9127
41.9139
41.915
41.9159
41.9167
41.9173
41.9178
41.9181
41.9183
51.9052
51.9029
51.8984
51.892
51.8837
51.8738
51.8624
51.8496
51.8353
51.8197
51.8026
51.7842
51.7643
51.743
51.7202
51.6961
51.6705
51.6435
51.6151
51.5853
51.5541
51.5215
51.4875
51.4522
51.4155
51.3775
51.3381
51.2975
51.2555
51.2123
51.1678
51.122
51.0751
51.0269
50.9775
50.9269
50.8752
50.8224
50.7684
50.7133
50.6571
50.5999
50.5417
50.4824
50.4221
50.3608
50.2986
50.2354
50.1714
50.1064
50.0406
49.974
49.9065
49.8382
49.7692
49.6994
49.6288
49.5576
49.4857
49.4131
49.34
49.2661
49.1918
49.1168
49.0413
48.9653
48.8889
48.812
48.7346
48.6569
48.5787
48.5003
48.4214
48.3423
48.2629
48.1833
48.1034
48.0233
47.943
47.8626
47.782
47.7013
47.6205
47.5397
47.4588
47.3779
47.297
47.2161
47.1353
47.0546
46.9739
46.8934
46.813
46.7328
46.6527
46.5729
46.4933
46.4139
46.3348
46.256
46.1774
46.0992
46.0214
45.9439
45.8668
45.79
45.7137
45.6379
45.5624
45.4875
45.413
45.339
45.2656
45.1926
45.1202
45.0484
44.9771
44.9064
44.8364
44.7669
44.698
44.6298
44.5622
44.4953
44.4291
44.3635
44.2986
44.2344
44.171
44.1082
44.0462
43.9849
43.9243
43.8645
43.8054
43.7471
43.6895
43.6328
43.5768
43.5215
43.4671
43.4135
43.3606
43.3086
43.2573
43.2069
43.1572
43.1084
43.0604
43.0132
42.9668
42.9212
42.8764
42.8324
42.7893
42.7469
42.7054
42.6647
42.6248
42.5857
42.5473
42.5098
42.4731
42.4372
42.4021
42.3677
42.3341
42.3014
42.2693
42.2381
42.2076
42.1779
42.1489
42.1207
42.0932
42.0665
42.0405
42.0152
41.9907
41.9668
41.9437
41.9212
41.8995
41.8784
41.858
41.8383
41.8193
41.8009
41.7831
41.766
41.7495
41.7336
41.7184
41.7037
41.6897
41.6762
41.6633
41.651
41.6392
41.628
41.6174
41.6072
41.5976
41.5886
41.58
41.5719
41.5643
41.5572
41.5505
41.5443
41.5386
41.5333
41.5284
41.524
41.5199
41.5163
41.5131
41.5102
41.5078
41.5056
41.5039
41.5025
41.5014
41.5007
41.5003
41.5002
41.5004
41.5009
41.5016
41.5027
41.504
41.5056
41.5074
41.5094
41.5117
41.5143
41.517
41.5199
41.5231
41.5264
41.5299
41.5336
41.5374
41.5414
41.5456
41.5498
41.5543
41.5588
41.5635
41.5683
41.5732
41.5781
41.5832
41.5884
41.5936
41.5989
41.6043
41.6097
41.6151
41.6206
41.6262
41.6318
41.6374
41.643
41.6486
41.6542
41.6599
41.6655
41.6711
41.6767
41.6823
41.6879
41.6934
41.6989
41.7043
41.7097
41.7151
41.7203
41.7256
41.7307
41.7358
41.7408
41.7458
41.7506
41.7554
41.7601
41.7647
41.7692
41.7736
41.7779
41.7821
41.7861
41.7901
41.7939
41.7977
41.8013
41.8048
41.8081
41.8113
41.8144
41.8174
41.8202
41.8229
41.8255
41.8279
41.8302
41.8323
41.8343
41.8361
41.8378
41.8393
41.8407
41.8419
41.843
41.8439
41.8447
41.8453
41.8458
41.8461
41.8463
51.8742
51.872
51.8676
51.8613
51.8531
51.8433
51.832
51.8192
51.8049
51.7893
51.7722
51.7537
51.7338
51.7124
51.6896
51.6654
51.6398
51.6128
51.5843
51.5545
51.5232
51.4906
51.4566
51.4213
51.3845
51.3465
51.3071
51.2665
51.2245
51.1813
51.1367
51.091
51.044
50.9958
50.9464
50.8959
50.8441
50.7913
50.7373
50.6822
50.626
50.5688
50.5105
50.4512
50.3909
50.3297
50.2675
50.2043
50.1402
50.0753
50.0095
49.9428
49.8753
49.8071
49.738
49.6682
49.5977
49.5265
49.4546
49.382
49.3088
49.235
49.1606
49.0857
49.0102
48.9342
48.8578
48.7809
48.7035
48.6258
48.5476
48.4692
48.3903
48.3112
48.2318
48.1522
48.0723
47.9922
47.912
47.8315
47.751
47.6703
47.5895
47.5087
47.4278
47.3469
47.266
47.1852
47.1044
47.0236
46.943
46.8625
46.7821
46.7019
46.6218
46.542
46.4624
46.383
46.3039
46.2251
46.1466
46.0684
45.9906
45.9131
45.836
45.7593
45.683
45.6071
45.5317
45.4568
45.3823
45.3084
45.2349
45.162
45.0896
45.0178
44.9465
44.8759
44.8058
44.7364
44.6675
44.5993
44.5318
44.4649
44.3987
44.3331
44.2682
44.2041
44.1406
44.0779
44.0159
43.9546
43.894
43.8342
43.7752
43.7169
43.6594
43.6026
43.5466
43.4914
43.437
43.3834
43.3306
43.2786
43.2273
43.1769
43.1273
43.0785
43.0305
42.9833
42.9369
42.8914
42.8466
42.8027
42.7595
42.7172
42.6757
42.635
42.5951
42.556
42.5178
42.4803
42.4436
42.4077
42.3726
42.3382
42.3047
42.2719
42.24
42.2087
42.1783
42.1486
42.1197
42.0915
42.064
42.0373
42.0113
41.9861
41.9615
41.9377
41.9146
41.8922
41.8705
41.8494
41.829
41.8094
41.7903
41.7719
41.7542
41.7371
41.7206
41.7048
41.6896
41.6749
41.6609
41.6475
41.6346
41.6223
41.6106
41.5994
41.5888
41.5787
41.5691
41.56
41.5515
41.5434
41.5358
41.5287
41.5221
41.5159
41.5102
41.5049
41.5001
41.4956
41.4916
41.488
41.4848
41.482
41.4795
41.4774
41.4757
41.4743
41.4733
41.4725
41.4721
41.4721
41.4723
41.4728
41.4736
41.4746
41.476
41.4775
41.4794
41.4815
41.4838
41.4863
41.489
41.492
41.4951
41.4985
41.502
41.5057
41.5095
41.5136
41.5177
41.522
41.5265
41.531
41.5357
41.5405
41.5454
41.5504
41.5555
41.5606
41.5659
41.5712
41.5766
41.582
41.5875
41.593
41.5986
41.6041
41.6097
41.6154
41.621
41.6267
41.6323
41.6379
41.6436
41.6492
41.6548
41.6603
41.6659
41.6713
41.6768
41.6822
41.6875
41.6928
41.6981
41.7032
41.7083
41.7134
41.7183
41.7232
41.728
41.7326
41.7372
41.7417
41.7461
41.7504
41.7546
41.7587
41.7627
41.7665
41.7702
41.7739
41.7773
41.7807
41.7839
41.787
41.79
41.7928
41.7955
41.7981
41.8005
41.8028
41.8049
41.8069
41.8087
41.8104
41.8119
41.8133
41.8146
41.8156
41.8166
41.8173
41.818
41.8184
41.8187
41.8189
51.8025
51.8003
51.7957
51.7891
51.7806
51.7704
51.7586
51.7455
51.7308
51.7149
51.6975
51.6787
51.6586
51.6371
51.6141
51.5898
51.5641
51.537
51.5085
51.4786
51.4473
51.4147
51.3807
51.3453
51.3086
51.2705
51.2312
51.1905
51.1485
51.1053
51.0608
51.0151
50.9681
50.9199
50.8706
50.82
50.7683
50.7155
50.6616
50.6065
50.5504
50.4932
50.4349
50.3757
50.3155
50.2542
50.1921
50.1289
50.0649
50
49.9343
49.8676
49.8002
49.732
49.663
49.5933
49.5228
49.4516
49.3798
49.3073
49.2341
49.1604
49.0861
49.0112
48.9358
48.8598
48.7834
48.7066
48.6293
48.5516
48.4736
48.3951
48.3164
48.2374
48.158
48.0784
47.9986
47.9186
47.8384
47.758
47.6776
47.5969
47.5162
47.4355
47.3547
47.2739
47.193
47.1123
47.0315
46.9509
46.8703
46.7898
46.7095
46.6294
46.5494
46.4697
46.3901
46.3108
46.2318
46.1531
46.0746
45.9965
45.9188
45.8413
45.7643
45.6877
45.6115
45.5357
45.4604
45.3855
45.3111
45.2372
45.1638
45.091
45.0187
44.947
44.8758
44.8052
44.7352
44.6658
44.5971
44.5289
44.4615
44.3946
44.3285
44.263
44.1982
44.1341
44.0707
44.0081
43.9461
43.8849
43.8244
43.7647
43.7057
43.6475
43.59
43.5334
43.4775
43.4223
43.368
43.3144
43.2617
43.2097
43.1586
43.1082
43.0587
43.0099
42.962
42.9149
42.8685
42.823
42.7784
42.7345
42.6914
42.6492
42.6077
42.5671
42.5272
42.4882
42.45
42.4126
42.3759
42.3401
42.305
42.2708
42.2373
42.2046
42.1726
42.1415
42.1111
42.0814
42.0526
42.0244
41.997
41.9704
41.9444
41.9192
41.8947
41.871
41.8479
41.8255
41.8038
41.7828
41.7625
41.7429
41.7239
41.7055
41.6879
41.6708
41.6544
41.6386
41.6234
41.6088
41.5948
41.5814
41.5686
41.5563
41.5446
41.5335
41.5229
41.5128
41.5033
41.4942
41.4857
41.4777
41.4701
41.463
41.4564
41.4503
41.4446
41.4394
41.4345
41.4301
41.4262
41.4226
41.4194
41.4166
41.4141
41.4121
41.4104
41.409
41.408
41.4073
41.4069
41.4068
41.4071
41.4076
41.4084
41.4095
41.4108
41.4124
41.4143
41.4164
41.4187
41.4213
41.424
41.427
41.4302
41.4335
41.437
41.4407
41.4446
41.4486
41.4528
41.4571
41.4616
41.4662
41.4709
41.4757
41.4806
41.4856
41.4907
41.4958
41.5011
41.5064
41.5118
41.5172
41.5227
41.5282
41.5338
41.5394
41.545
41.5506
41.5563
41.5619
41.5676
41.5732
41.5789
41.5845
41.5901
41.5956
41.6012
41.6067
41.6121
41.6175
41.6229
41.6282
41.6334
41.6386
41.6437
41.6487
41.6537
41.6585
41.6633
41.668
41.6726
41.6771
41.6815
41.6858
41.69
41.6941
41.698
41.7019
41.7056
41.7092
41.7127
41.7161
41.7193
41.7224
41.7254
41.7282
41.7309
41.7335
41.7359
41.7382
41.7403
41.7423
41.7441
41.7458
41.7473
41.7487
41.75
41.751
41.752
41.7527
41.7534
41.7538
41.7541
41.7543
51.7636
51.7614
51.7569
51.7504
51.742
51.732
51.7203
51.7072
51.6926
51.6766
51.6592
51.6405
51.6203
51.5987
51.5758
51.5514
51.5256
51.4985
51.4699
51.44
51.4086
51.3759
51.3419
51.3065
51.2697
51.2317
51.1923
51.1516
51.1096
51.0663
51.0218
50.9761
50.9291
50.8809
50.8315
50.7809
50.7292
50.6764
50.6224
50.5673
50.5112
50.454
50.3957
50.3365
50.2762
50.215
50.1528
50.0897
50.0256
49.9607
49.895
49.8283
49.7609
49.6927
49.6237
49.5539
49.4834
49.4123
49.3404
49.2679
49.1947
49.121
49.0467
48.9718
48.8963
48.8204
48.744
48.6672
48.5899
48.5122
48.4341
48.3557
48.277
48.1979
48.1186
48.039
47.9592
47.8792
47.799
47.7186
47.6381
47.5575
47.4768
47.396
47.3152
47.2344
47.1536
47.0728
46.9921
46.9114
46.8309
46.7504
46.6701
46.59
46.51
46.4303
46.3507
46.2715
46.1924
46.1137
46.0353
45.9572
45.8794
45.802
45.725
45.6484
45.5722
45.4964
45.4211
45.3462
45.2719
45.198
45.1246
45.0518
44.9795
44.9078
44.8366
44.7661
44.6961
44.6267
44.558
44.4899
44.4224
44.3556
44.2895
44.224
44.1593
44.0952
44.0318
43.9692
43.9072
43.8461
43.7856
43.7259
43.6669
43.6088
43.5513
43.4947
43.4388
43.3837
43.3294
43.2759
43.2231
43.1712
43.1201
43.0697
43.0202
42.9715
42.9236
42.8765
42.8302
42.7848
42.7401
42.6962
42.6532
42.611
42.5696
42.529
42.4892
42.4502
42.412
42.3746
42.338
42.3022
42.2672
42.2329
42.1995
42.1668
42.1349
42.1038
42.0734
42.0438
42.0149
41.9868
41.9595
41.9328
41.9069
41.8818
41.8573
41.8336
41.8106
41.7882
41.7666
41.7456
41.7253
41.7057
41.6867
41.6684
41.6508
41.6338
41.6174
41.6016
41.5865
41.5719
41.5579
41.5446
41.5318
41.5195
41.5079
41.4968
41.4862
41.4762
41.4666
41.4576
41.4491
41.4411
41.4336
41.4266
41.42
41.4139
41.4082
41.403
41.3982
41.3939
41.3899
41.3864
41.3832
41.3804
41.378
41.376
41.3743
41.373
41.372
41.3713
41.3709
41.3709
41.3712
41.3717
41.3725
41.3736
41.375
41.3767
41.3785
41.3806
41.383
41.3856
41.3883
41.3913
41.3945
41.3979
41.4015
41.4052
41.4091
41.4131
41.4173
41.4216
41.4261
41.4307
41.4354
41.4402
41.4452
41.4502
41.4553
41.4605
41.4658
41.4711
41.4765
41.482
41.4875
41.493
41.4986
41.5042
41.5098
41.5155
41.5211
41.5268
41.5324
41.5381
41.5437
41.5494
41.555
41.5606
41.5661
41.5716
41.5771
41.5825
41.5879
41.5932
41.5984
41.6036
41.6087
41.6138
41.6187
41.6236
41.6284
41.6331
41.6377
41.6422
41.6466
41.6509
41.6551
41.6592
41.6632
41.667
41.6708
41.6744
41.6779
41.6812
41.6845
41.6876
41.6906
41.6934
41.6961
41.6987
41.7011
41.7034
41.7055
41.7075
41.7093
41.711
41.7125
41.7139
41.7152
41.7162
41.7172
41.718
41.7186
41.719
41.7194
41.7195
51.6971
51.6949
51.6904
51.6839
51.6753
51.6652
51.6533
51.6401
51.6253
51.6091
51.5916
51.5726
51.5523
51.5306
51.5075
51.483
51.4572
51.4299
51.4013
51.3713
51.3399
51.3072
51.2731
51.2376
51.2008
51.1627
51.1233
51.0826
51.0406
50.9974
50.9528
50.9071
50.8601
50.8119
50.7625
50.712
50.6603
50.6074
50.5534
50.4984
50.4423
50.3851
50.3268
50.2676
50.2073
50.1461
50.0839
50.0208
49.9568
49.8919
49.8262
49.7596
49.6922
49.6239
49.555
49.4852
49.4148
49.3436
49.2718
49.1993
49.1262
49.0525
48.9782
48.9033
48.8279
48.752
48.6756
48.5988
48.5216
48.4439
48.3659
48.2875
48.2088
48.1298
48.0505
47.9709
47.8911
47.8112
47.731
47.6507
47.5702
47.4896
47.409
47.3283
47.2475
47.1667
47.0859
47.0052
46.9245
46.8439
46.7634
46.683
46.6027
46.5226
46.4427
46.363
46.2835
46.2043
46.1253
46.0466
45.9682
45.8902
45.8125
45.7351
45.6581
45.5816
45.5054
45.4297
45.3544
45.2796
45.2053
45.1315
45.0582
44.9854
44.9132
44.8415
44.7704
44.6999
44.6299
44.5606
44.4919
44.4239
44.3565
44.2897
44.2237
44.1583
44.0935
44.0295
43.9662
43.9036
43.8418
43.7806
43.7202
43.6606
43.6017
43.5435
43.4862
43.4296
43.3737
43.3187
43.2644
43.211
43.1583
43.1064
43.0554
43.0051
42.9556
42.907
42.8591
42.8121
42.7659
42.7204
42.6758
42.632
42.5891
42.5469
42.5055
42.465
42.4252
42.3863
42.3482
42.3108
42.2743
42.2385
42.2036
42.1694
42.136
42.1034
42.0715
42.0404
42.0101
41.9806
41.9518
41.9237
41.8964
41.8698
41.844
41.8189
41.7945
41.7708
41.7478
41.7255
41.7039
41.683
41.6627
41.6432
41.6243
41.606
41.5884
41.5714
41.5551
41.5393
41.5242
41.5097
41.4958
41.4825
41.4697
41.4575
41.4459
41.4349
41.4243
41.4143
41.4048
41.3959
41.3874
41.3795
41.372
41.365
41.3585
41.3524
41.3468
41.3416
41.3368
41.3325
41.3286
41.325
41.3219
41.3192
41.3168
41.3148
41.3131
41.3118
41.3109
41.3102
41.3099
41.3099
41.3102
41.3108
41.3116
41.3128
41.3142
41.3158
41.3177
41.3199
41.3222
41.3248
41.3276
41.3306
41.3339
41.3372
41.3408
41.3446
41.3485
41.3526
41.3568
41.3611
41.3656
41.3702
41.375
41.3798
41.3847
41.3898
41.3949
41.4001
41.4054
41.4108
41.4162
41.4216
41.4272
41.4327
41.4383
41.4439
41.4496
41.4552
41.4609
41.4666
41.4723
41.4779
41.4836
41.4892
41.4948
41.5004
41.506
41.5115
41.517
41.5224
41.5278
41.5331
41.5384
41.5436
41.5487
41.5537
41.5587
41.5636
41.5684
41.5731
41.5777
41.5822
41.5866
41.5909
41.5951
41.5992
41.6032
41.6071
41.6108
41.6144
41.6179
41.6213
41.6245
41.6277
41.6306
41.6335
41.6362
41.6387
41.6412
41.6434
41.6456
41.6476
41.6494
41.6511
41.6526
41.654
41.6553
41.6563
41.6573
41.6581
41.6587
41.6591
41.6595
41.6596
51.6529
51.6508
51.6463
51.6399
51.6315
51.6215
51.6098
51.5966
51.5818
51.5657
51.5482
51.5292
51.5089
51.4871
51.464
51.4394
51.4135
51.3862
51.3575
51.3275
51.2961
51.2633
51.2291
51.1936
51.1568
51.1187
51.0792
51.0385
50.9964
50.9531
50.9086
50.8628
50.8157
50.7675
50.7181
50.6675
50.6158
50.5629
50.5089
50.4538
50.3977
50.3405
50.2822
50.2229
50.1626
50.1014
50.0392
49.9761
49.912
49.8471
49.7814
49.7147
49.6473
49.5791
49.5101
49.4403
49.3698
49.2987
49.2268
49.1543
49.0812
49.0074
48.9331
48.8582
48.7828
48.7069
48.6305
48.5537
48.4764
48.3987
48.3207
48.2423
48.1635
48.0845
48.0052
47.9256
47.8458
47.7658
47.6857
47.6053
47.5249
47.4443
47.3636
47.2829
47.2021
47.1213
47.0405
46.9598
46.8791
46.7985
46.7179
46.6375
46.5573
46.4772
46.3973
46.3175
46.2381
46.1588
46.0798
46.0012
45.9228
45.8447
45.767
45.6897
45.6127
45.5361
45.46
45.3843
45.309
45.2342
45.1599
45.0861
45.0128
44.94
44.8678
44.7961
44.725
44.6545
44.5846
44.5153
44.4466
44.3786
44.3112
44.2445
44.1784
44.113
44.0483
43.9844
43.9211
43.8585
43.7966
43.7355
43.6752
43.6155
43.5567
43.4985
43.4412
43.3846
43.3288
43.2738
43.2196
43.1661
43.1135
43.0617
43.0106
42.9604
42.9109
42.8623
42.8145
42.7675
42.7213
42.6759
42.6314
42.5876
42.5447
42.5025
42.4612
42.4207
42.381
42.3421
42.304
42.2667
42.2302
42.1945
42.1595
42.1254
42.092
42.0594
42.0276
41.9966
41.9663
41.9368
41.9081
41.88
41.8528
41.8262
41.8004
41.7753
41.751
41.7273
41.7044
41.6822
41.6606
41.6397
41.6195
41.6
41.5811
41.5629
41.5454
41.5284
41.5121
41.4964
41.4814
41.4669
41.453
41.4397
41.427
41.4149
41.4033
41.3923
41.3818
41.3718
41.3624
41.3535
41.345
41.3371
41.3297
41.3227
41.3162
41.3102
41.3046
41.2995
41.2947
41.2905
41.2866
41.2831
41.28
41.2773
41.2749
41.273
41.2714
41.2701
41.2692
41.2686
41.2683
41.2683
41.2686
41.2692
41.2701
41.2713
41.2727
41.2744
41.2764
41.2785
41.2809
41.2836
41.2864
41.2894
41.2927
41.2961
41.2997
41.3035
41.3074
41.3115
41.3158
41.3201
41.3247
41.3293
41.3341
41.3389
41.3439
41.349
41.3541
41.3593
41.3647
41.37
41.3755
41.381
41.3865
41.3921
41.3977
41.4033
41.409
41.4147
41.4204
41.4261
41.4318
41.4375
41.4431
41.4488
41.4544
41.46
41.4656
41.4711
41.4766
41.4821
41.4875
41.4928
41.4981
41.5033
41.5084
41.5135
41.5184
41.5233
41.5282
41.5329
41.5375
41.542
41.5464
41.5508
41.555
41.5591
41.5631
41.567
41.5707
41.5743
41.5778
41.5812
41.5845
41.5876
41.5906
41.5934
41.5961
41.5987
41.6011
41.6034
41.6055
41.6075
41.6094
41.6111
41.6126
41.614
41.6153
41.6163
41.6173
41.6181
41.6187
41.6191
41.6195
41.6196
51.5903
51.5882
51.5837
51.5773
51.569
51.5589
51.5471
51.5339
51.5191
51.5028
51.4852
51.4661
51.4457
51.4238
51.4006
51.376
51.35
51.3226
51.2938
51.2637
51.2322
51.1994
51.1652
51.1296
51.0928
51.0546
51.0151
50.9743
50.9322
50.8889
50.8443
50.7985
50.7514
50.7032
50.6538
50.6032
50.5514
50.4985
50.4445
50.3894
50.3332
50.276
50.2177
50.1584
50.0982
50.0369
49.9747
49.9116
49.8475
49.7826
49.7168
49.6502
49.5828
49.5145
49.4455
49.3758
49.3053
49.2341
49.1622
49.0897
49.0166
48.9428
48.8685
48.7936
48.7182
48.6423
48.5659
48.4891
48.4118
48.3342
48.2561
48.1777
48.099
48.02
47.9407
47.8611
47.7813
47.7014
47.6212
47.5409
47.4604
47.3798
47.2992
47.2184
47.1377
47.0569
46.9761
46.8954
46.8147
46.7341
46.6536
46.5732
46.493
46.4129
46.333
46.2533
46.1738
46.0946
46.0157
45.937
45.8586
45.7806
45.7029
45.6256
45.5487
45.4721
45.396
45.3203
45.2451
45.1703
45.096
45.0222
44.949
44.8762
44.804
44.7324
44.6613
44.5909
44.521
44.4517
44.3831
44.3151
44.2477
44.1811
44.115
44.0497
43.985
43.9211
43.8578
43.7953
43.7335
43.6724
43.6121
43.5525
43.4937
43.4356
43.3783
43.3218
43.266
43.2111
43.1569
43.1035
43.0509
42.9991
42.9481
42.8979
42.8485
42.7999
42.7522
42.7052
42.6591
42.6138
42.5692
42.5255
42.4826
42.4406
42.3993
42.3588
42.3192
42.2803
42.2423
42.205
42.1686
42.1329
42.098
42.0639
42.0306
41.9981
41.9664
41.9354
41.9051
41.8757
41.847
41.819
41.7918
41.7653
41.7396
41.7145
41.6902
41.6666
41.6437
41.6215
41.6
41.5792
41.5591
41.5396
41.5208
41.5026
41.4851
41.4682
41.452
41.4363
41.4213
41.4069
41.3931
41.3798
41.3672
41.3551
41.3435
41.3326
41.3221
41.3122
41.3028
41.2939
41.2856
41.2777
41.2703
41.2634
41.2569
41.251
41.2454
41.2403
41.2356
41.2314
41.2275
41.2241
41.221
41.2184
41.2161
41.2142
41.2126
41.2114
41.2105
41.2099
41.2096
41.2097
41.2101
41.2107
41.2116
41.2128
41.2143
41.216
41.218
41.2202
41.2227
41.2253
41.2282
41.2313
41.2345
41.238
41.2416
41.2454
41.2494
41.2535
41.2578
41.2622
41.2667
41.2714
41.2762
41.2811
41.2861
41.2912
41.2964
41.3016
41.307
41.3124
41.3178
41.3233
41.3289
41.3345
41.3401
41.3458
41.3515
41.3572
41.3629
41.3686
41.3743
41.38
41.3857
41.3914
41.397
41.4027
41.4083
41.4138
41.4193
41.4248
41.4302
41.4355
41.4408
41.446
41.4512
41.4562
41.4612
41.4661
41.471
41.4757
41.4803
41.4849
41.4893
41.4936
41.4979
41.502
41.506
41.5099
41.5136
41.5173
41.5208
41.5242
41.5274
41.5305
41.5335
41.5364
41.5391
41.5417
41.5441
41.5464
41.5485
41.5505
41.5524
41.5541
41.5556
41.557
41.5583
41.5594
41.5603
41.5611
41.5617
41.5622
41.5625
41.5626
51.5427
51.5406
51.5363
51.53
51.5217
51.5118
51.5001
51.4869
51.4722
51.456
51.4384
51.4193
51.3988
51.3769
51.3537
51.329
51.303
51.2755
51.2467
51.2165
51.185
51.1521
51.1178
51.0822
51.0453
51.0071
50.9675
50.9267
50.8846
50.8412
50.7965
50.7507
50.7036
50.6553
50.6058
50.5552
50.5034
50.4505
50.3964
50.3413
50.285
50.2278
50.1695
50.1101
50.0498
49.9885
49.9263
49.8631
49.799
49.7341
49.6682
49.6016
49.5341
49.4658
49.3968
49.327
49.2565
49.1853
49.1134
49.0408
48.9677
48.8939
48.8195
48.7446
48.6692
48.5932
48.5168
48.4399
48.3626
48.2849
48.2069
48.1284
48.0497
47.9706
47.8913
47.8117
47.7319
47.6519
47.5717
47.4913
47.4108
47.3302
47.2496
47.1688
47.088
47.0072
46.9264
46.8457
46.765
46.6844
46.6038
46.5234
46.4432
46.3631
46.2831
46.2034
46.124
46.0447
45.9658
45.8871
45.8087
45.7307
45.653
45.5757
45.4987
45.4222
45.346
45.2703
45.1951
45.1203
45.046
44.9723
44.899
44.8263
44.7541
44.6824
44.6114
44.5409
44.471
44.4018
44.3332
44.2652
44.1978
44.1311
44.0651
43.9998
43.9352
43.8712
43.808
43.7455
43.6837
43.6226
43.5623
43.5028
43.444
43.3859
43.3286
43.2721
43.2164
43.1615
43.1073
43.0539
43.0014
42.9496
42.8986
42.8485
42.7991
42.7506
42.7029
42.6559
42.6098
42.5645
42.5201
42.4764
42.4335
42.3915
42.3503
42.3098
42.2702
42.2314
42.1934
42.1562
42.1198
42.0842
42.0493
42.0153
41.982
41.9496
41.9178
41.8869
41.8567
41.8273
41.7986
41.7707
41.7436
41.7171
41.6914
41.6665
41.6422
41.6186
41.5958
41.5737
41.5522
41.5314
41.5113
41.4919
41.4731
41.455
41.4376
41.4207
41.4045
41.3889
41.374
41.3596
41.3458
41.3326
41.32
41.308
41.2965
41.2856
41.2752
41.2653
41.256
41.2472
41.2388
41.231
41.2237
41.2168
41.2104
41.2045
41.199
41.1939
41.1893
41.1851
41.1813
41.1779
41.1749
41.1723
41.17
41.1681
41.1666
41.1654
41.1646
41.164
41.1638
41.1639
41.1643
41.165
41.166
41.1672
41.1687
41.1705
41.1725
41.1748
41.1772
41.1799
41.1829
41.186
41.1893
41.1928
41.1964
41.2003
41.2043
41.2085
41.2128
41.2172
41.2218
41.2265
41.2313
41.2362
41.2413
41.2464
41.2516
41.2569
41.2622
41.2677
41.2732
41.2787
41.2843
41.2899
41.2956
41.3013
41.307
41.3127
41.3184
41.3242
41.3299
41.3357
41.3414
41.3471
41.3527
41.3584
41.364
41.3696
41.3751
41.3806
41.386
41.3914
41.3967
41.4019
41.4071
41.4122
41.4172
41.4221
41.4269
41.4317
41.4363
41.4409
41.4453
41.4497
41.4539
41.4581
41.4621
41.466
41.4697
41.4734
41.4769
41.4803
41.4836
41.4867
41.4897
41.4926
41.4953
41.4979
41.5003
41.5026
41.5047
41.5068
41.5086
41.5103
41.5119
41.5133
41.5145
41.5156
41.5165
41.5173
41.5179
41.5184
41.5187
41.5189
51.4829
51.4808
51.4765
51.4702
51.462
51.4521
51.4404
51.4272
51.4125
51.3962
51.3785
51.3594
51.3389
51.3169
51.2936
51.2688
51.2427
51.2152
51.1863
51.1561
51.1244
51.0915
51.0572
51.0215
50.9845
50.9462
50.9066
50.8658
50.8236
50.7802
50.7355
50.6896
50.6425
50.5941
50.5446
50.4939
50.4421
50.3891
50.335
50.2799
50.2236
50.1663
50.108
50.0486
49.9883
49.9269
49.8647
49.8015
49.7373
49.6724
49.6065
49.5398
49.4723
49.404
49.3349
49.2651
49.1946
49.1233
49.0514
48.9788
48.9056
48.8318
48.7574
48.6825
48.607
48.5311
48.4546
48.3777
48.3004
48.2227
48.1446
48.0662
47.9874
47.9083
47.829
47.7494
47.6695
47.5895
47.5093
47.4289
47.3484
47.2678
47.1871
47.1063
47.0255
46.9447
46.8639
46.7832
46.7025
46.6218
46.5413
46.4609
46.3806
46.3005
46.2206
46.1409
46.0614
45.9821
45.9032
45.8245
45.7461
45.6681
45.5904
45.5131
45.4361
45.3596
45.2835
45.2078
45.1326
45.0578
44.9835
44.9098
44.8365
44.7638
44.6916
44.62
44.5489
44.4785
44.4087
44.3394
44.2708
44.2028
44.1355
44.0689
44.0029
43.9376
43.873
43.809
43.7458
43.6834
43.6216
43.5606
43.5003
43.4408
43.382
43.324
43.2667
43.2103
43.1546
43.0997
43.0456
42.9922
42.9397
42.888
42.8371
42.7869
42.7376
42.6891
42.6414
42.5946
42.5485
42.5033
42.4588
42.4152
42.3724
42.3304
42.2892
42.2488
42.2093
42.1705
42.1326
42.0954
42.059
42.0235
41.9887
41.9547
41.9215
41.8891
41.8574
41.8265