/*--------------------------------*- C++ -*----------------------------------*\
| =========                 |                                                 |
| \\      /  F ield         | OpenFOAM: The Open Source CFD Toolbox           |
|  \\    /   O peration     | Version:  2212                                  |
|   \\  /    A nd           | Website:  www.openfoam.com                      |
|    \\/     M anipulation  |                                                 |
\*---------------------------------------------------------------------------*/
FoamFile
{
    version     2.0;
    format      ascii;
    arch        "LSB;label=32;scalar=64";
    class       surfaceScalarField;
    location    "880";
    object      phi;
}
// * * * * * * * * * * * * * * * * * * * * * * * * * * * * * * * * * * * * * //

dimensions      [1 0 -1 0 0 0 0];

oriented        oriented;

internalField   nonuniform List<scalar> 
408640
(
-841.346
837.9
-1657.78
815.914
-2429.2
770.909
-3142.22
712.516
-3792.44
649.72
-4383.74
590.797
-4925.41
541.185
-5429.37
503.476
-5907.54
477.677
-6370.17
462.145
-6825.11
454.454
-7277.72
452.125
-7731.24
453.04
-8187.34
455.617
-8646.63
458.798
-9109.07
461.955
-9574.32
464.763
-10041.9
467.086
-10511.3
468.902
-10982
470.238
-11453.6
471.144
-11925.8
471.671
-12398.1
471.87
-12870.4
471.781
-13342.3
471.44
-13813.7
470.876
-14284.3
470.113
-14753.9
469.171
-15222.5
468.065
-15689.8
466.811
-16155.7
465.419
-16620
463.899
-17082.8
462.26
-17543.8
460.508
-18002.9
458.651
-18460.1
456.693
-18915.2
454.64
-19368.1
452.495
-19818.9
450.262
-20267.3
447.945
-20713.3
445.546
-21156.9
443.069
-21597.8
440.515
-22036.2
437.888
-22471.9
435.188
-22904.7
432.419
-23334.8
429.582
-23761.9
426.678
-24186.1
423.709
-24607.3
420.677
-25025.3
417.583
-25440.2
414.428
-25851.9
411.214
-26260.3
407.942
-26665.4
404.614
-27067
401.229
-27465.3
397.79
-27860
394.298
-28251.2
390.753
-28638.9
387.157
-29022.8
383.511
-29403.1
379.815
-29779.6
376.072
-30152.3
372.281
-30521.2
368.444
-30886.2
364.562
-31247.3
360.636
-31604.4
356.667
-31957.5
352.655
-32306.6
348.603
-32651.5
344.51
-32992.3
340.377
-33329
336.206
-33661.4
331.998
-33989.6
327.754
-34313.5
323.474
-34633.1
319.159
-34948.3
314.811
-35259.2
310.43
-35565.6
306.018
-35867.6
301.574
-36165.1
297.101
-36458.1
292.599
-36746.6
288.069
-37030.5
283.513
-37309.9
278.93
-37584.6
274.322
-37854.7
269.69
-38120.1
265.035
-38380.9
260.357
-38636.9
255.659
-38888.3
250.939
-39134.9
246.201
-39376.7
241.444
-39613.7
236.669
-39846
231.877
-40073.5
227.07
-40296.1
222.248
-40513.9
217.412
-40726.8
212.563
-40934.9
207.702
-41138.1
202.83
-41336.4
197.948
-41529.8
193.056
-41718.3
188.156
-41901.9
183.248
-42080.6
178.333
-42254.4
173.412
-42423.2
168.487
-42587.1
163.557
-42746
158.624
-42900.1
153.689
-43049.2
148.752
-43193.3
143.814
-43332.5
138.877
-43466.8
133.94
-43596.1
129.005
-43720.5
124.073
-43839.9
119.144
-43954.4
114.219
-44064
109.299
-44168.7
104.385
-44268.5
99.4769
-44363.4
94.5764
-44453.3
89.6838
-44538.4
84.8
-44618.6
79.9256
-44694
75.0614
-44764.5
70.2081
-44830.1
65.3664
-44890.9
60.5369
-44946.9
55.7204
-44998
50.9175
-45044.4
46.129
-45086
41.3553
-45122.9
36.5973
-45155
31.8554
-45182.3
27.1304
-45205
22.4228
-45223
17.7332
-45236.2
13.0623
-45244.9
8.41048
-45248.9
3.77845
-45248.2
-0.833283
-45243
-5.42418
-45233.2
-9.99372
-45218.9
-14.5414
-45200
-19.0667
-45176.6
-23.5691
-45148.8
-28.0482
-45116.4
-32.5034
-45079.7
-36.9344
-45038.5
-41.3406
-44993
-45.7217
-44943
-50.0773
-44888.8
-54.4068
-44830.2
-58.71
-44767.4
-62.9864
-44700.3
-67.2357
-44629
-71.4574
-44553.5
-75.6514
-44473.8
-79.8171
-44390
-83.9543
-44302
-88.0627
-44210
-92.142
-44113.9
-96.1918
-44013.8
-100.212
-43909.7
-104.202
-43801.6
-108.162
-43689.6
-112.091
-43573.7
-115.99
-43454
-119.858
-43330.4
-123.695
-43202.9
-127.5
-43071.7
-131.274
-42936.8
-135.016
-42798.1
-138.726
-42655.8
-142.404
-42509.8
-146.05
-42360.1
-149.663
-42206.9
-153.244
-42050.2
-156.792
-41889.9
-160.308
-41726.1
-163.791
-41558.9
-167.241
-41388.3
-170.658
-41214.3
-174.042
-41036.9
-177.392
-40856.2
-180.71
-40672.2
-183.994
-40484.9
-187.246
-40294.4
-190.463
-40100.8
-193.648
-39904
-196.799
-39704
-199.917
-39501
-203.001
-39294.9
-206.053
-39085.8
-209.071
-38873.7
-212.055
-38658.7
-215.007
-38440.7
-217.925
-38219.8
-220.81
-37996.1
-223.662
-37769.5
-226.481
-37540.2
-229.267
-37308.1
-232.02
-37073.3
-234.741
-36835.8
-237.428
-36595.6
-240.083
-36352.8
-242.706
-36107.4
-245.296
-35859.5
-247.854
-35609
-250.379
-35356
-252.873
-35100.6
-255.334
-34842.7
-257.764
-34582.4
-260.162
-34319.8
-262.528
-34054.8
-264.863
-33787.5
-267.167
-33517.9
-269.439
-33246.1
-271.681
-32972.1
-273.891
-32695.8
-276.071
-32417.5
-278.221
-32137
-280.34
-31854.4
-282.429
-31569.7
-284.488
-31283.1
-286.517
-30994.4
-288.517
-30703.7
-290.487
-30411.1
-292.428
-30116.6
-294.339
-29820.2
-296.222
-29521.9
-298.076
-29221.8
-299.901
-28920
-301.698
-28616.3
-303.467
-28310.9
-305.208
-28003.8
-306.921
-27694.9
-308.606
-27384.5
-310.264
-27072.4
-311.895
-26758.7
-313.499
-26443.4
-315.076
-26126.5
-316.626
-25808.1
-318.15
-25488.3
-319.647
-25166.9
-321.119
-24844.1
-322.565
-24519.9
-323.985
-24194.3
-325.379
-23867.3
-326.749
-23538.9
-328.093
-23209.3
-329.412
-22878.3
-330.707
-22546.1
-331.977
-22212.6
-333.223
-21877.9
-334.445
-21542
-335.642
-21204.9
-336.816
-20866.7
-337.967
-20527.3
-339.094
-20186.9
-340.198
-19845.3
-341.279
-19502.7
-342.337
-19159
-343.372
-18814.4
-344.385
-18468.7
-345.376
-18122.1
-346.344
-17774.5
-347.291
-17426
-348.215
-17076.6
-349.119
-16726.3
-350
-16375.2
-350.86
-16023.2
-351.699
-15670.3
-352.518
-15316.7
-353.315
-14962.3
-354.091
-14607.2
-354.847
-14251.3
-355.583
-13894.7
-356.298
-13537.4
-356.993
-13179.4
-357.669
-12820.8
-358.324
-12461.5
-358.96
-12101.6
-359.576
-11741.1
-360.172
-11380.1
-360.75
-11018.4
-361.308
-10656.3
-361.847
-10293.6
-362.367
-9930.38
-362.869
-9566.7
-363.352
-9202.56
-363.816
-8837.97
-364.262
-8472.96
-364.689
-8107.53
-365.099
-7741.71
-365.49
-7375.52
-365.864
-7008.97
-366.219
-6642.08
-366.557
-6274.87
-366.878
-5907.36
-367.181
-5539.56
-367.467
-5171.49
-367.735
-4803.17
-367.986
-4434.61
-368.22
-4065.84
-368.437
-3696.87
-368.636
-3327.71
-368.819
-2958.39
-368.984
-2588.92
-369.131
-2219.33
-369.261
-1849.61
-369.374
-1479.81
-369.468
-1109.93
-369.544
-739.985
-369.603
-370.003
-369.643
-369.665
-827.615
1665
-1632.93
1620.71
-2395.91
1533.37
-3103.55
1419.65
-3751.64
1297.31
-4343.45
1182.11
-4887.55
1084.8
-5395.04
1010.47
-5877.14
959.296
-6343.64
928.158
-6802.07
912.404
-7257.66
907.229
-7713.61
908.509
-8171.62
913.145
-8632.37
919.057
-9095.89
924.996
-9561.92
930.308
-10030
934.716
-10499.8
938.161
-10970.7
940.688
-11442.4
942.386
-11914.6
943.352
-12386.9
943.679
-12859
943.446
-13330.8
942.72
-13802
941.557
-14272.3
940.001
-14741.7
938.093
-15210
935.863
-15677
933.338
-16142.6
930.54
-16606.7
927.489
-17069.1
924.201
-17529.8
920.69
-17988.5
916.969
-18445.4
913.048
-18900.1
908.936
-19352.8
904.642
-19803.2
900.173
-20251.2
895.536
-20696.9
890.737
-21140.1
885.78
-21580.7
880.672
-22018.7
875.416
-22454
870.017
-22886.5
864.478
-23316.2
858.803
-23743
852.995
-24166.8
847.058
-24587.6
840.994
-25005.3
834.807
-25419.8
828.498
-25831.1
822.071
-26239.2
815.528
-26643.9
808.871
-27045.2
802.104
-27443.1
795.227
-27837.5
788.243
-28228.4
781.155
-28615.6
773.965
-28999.2
766.674
-29379.2
759.285
-29755.3
751.8
-30127.7
744.221
-30496.3
736.549
-30860.9
728.787
-31221.7
720.937
-31578.5
713
-31931.2
704.98
-32279.9
696.876
-32624.6
688.693
-32965.1
680.43
-33301.4
672.091
-33633.5
663.678
-33961.3
655.191
-34284.9
646.634
-34604.2
638.007
-34919.1
629.313
-35229.7
620.554
-35535.8
611.732
-35837.5
602.849
-36134.7
593.905
-36427.4
584.904
-36715.6
575.848
-36999.3
566.737
-37278.3
557.575
-37552.8
548.362
-37822.6
539.101
-38087.7
529.794
-38348.2
520.442
-38604
511.048
-38855.1
501.613
-39101.4
492.139
-39343
482.628
-39579.8
473.082
-39811.8
463.503
-40039
453.892
-40261.4
444.252
-40478.9
434.584
-40691.6
424.889
-40899.4
415.171
-41102.4
405.43
-41300.5
395.669
-41493.7
385.889
-41682
376.092
-41865.4
366.28
-42043.8
356.454
-42217.4
346.617
-42386
336.77
-42549.7
326.914
-42708.5
317.053
-42862.3
307.186
-43011.2
297.316
-43155.2
287.444
-43294.2
277.573
-43428.3
267.704
-43557.4
257.838
-43681.6
247.978
-43800.9
238.124
-43915.3
228.278
-44024.7
218.443
-44129.3
208.618
-44228.9
198.807
-44323.6
189.01
-44413.5
179.229
-44498.4
169.466
-44578.5
159.721
-44653.7
149.997
-44724.1
140.295
-44789.6
130.616
-44850.3
120.961
-44906.1
111.332
-44957.2
101.731
-45003.5
92.158
-45045
82.6151
-45081.7
73.1033
-45113.8
63.6239
-45141
54.1782
-45163.6
44.7674
-45181.5
35.3926
-45194.7
26.0551
-45203.3
16.7559
-45207.2
7.49622
-45206.5
-1.72287
-45201.3
-10.9003
-45191.4
-20.035
-45177
-29.1259
-45158.1
-38.1721
-45134.7
-47.1726
-45106.8
-56.1263
-45074.5
-65.0324
-45037.7
-73.89
-44996.5
-82.6982
-44950.9
-91.456
-44901
-100.163
-44846.8
-108.817
-44788.2
-117.419
-44725.4
-125.968
-44658.3
-134.462
-44587
-142.901
-44511.5
-151.285
-44431.8
-159.612
-44348
-167.882
-44260.1
-176.095
-44168.1
-184.249
-44072.1
-192.344
-43972
-200.38
-43867.9
-208.356
-43759.9
-216.272
-43648
-224.127
-43532.1
-231.92
-43412.4
-239.651
-43288.9
-247.32
-43161.5
-254.927
-43030.4
-262.47
-42895.5
-269.95
-42757
-277.366
-42614.7
-284.718
-42468.8
-292.006
-42319.3
-299.228
-42166.2
-306.386
-42009.5
-313.479
-41849.4
-320.506
-41685.7
-327.468
-41518.6
-334.364
-41348.1
-341.194
-41174.2
-347.958
-40996.9
-354.656
-40816.4
-361.287
-40632.5
-367.852
-40445.4
-374.35
-40255.1
-380.782
-40061.5
-387.147
-39864.9
-393.446
-39665.1
-399.678
-39462.2
-405.844
-39256.3
-411.942
-39047.4
-417.975
-38835.4
-423.94
-38620.6
-429.84
-38402.8
-435.673
-38182.1
-441.439
-37958.5
-447.14
-37732.2
-452.774
-37503
-458.343
-37271.1
-463.846
-37036.5
-469.283
-36799.2
-474.655
-36559.2
-479.962
-36316.7
-485.203
-36071.5
-490.38
-35823.7
-495.492
-35573.5
-500.54
-35320.7
-505.524
-35065.5
-510.444
-34807.9
-515.3
-34547.8
-520.093
-34285.4
-524.822
-34020.6
-529.489
-33753.6
-534.094
-33484.3
-538.636
-33212.7
-543.116
-32938.9
-547.534
-32662.9
-551.891
-32384.8
-556.188
-32104.6
-560.423
-31822.3
-564.598
-31537.9
-568.714
-31251.5
-572.769
-30963
-576.766
-30672.7
-580.703
-30380.3
-584.582
-30086.1
-588.403
-29790
-592.165
-29492
-595.871
-29192.2
-599.519
-28890.6
-603.11
-28587.2
-606.646
-28282.1
-610.125
-27975.2
-613.548
-27666.7
-616.917
-27356.6
-620.231
-27044.7
-623.49
-26731.3
-626.695
-26416.3
-629.847
-26099.8
-632.945
-25781.7
-635.991
-25462.2
-638.984
-25141.1
-641.925
-24818.7
-644.814
-24494.8
-647.652
-24169.5
-650.439
-23842.8
-653.176
-23514.8
-655.862
-23185.4
-658.499
-22854.8
-661.087
-22522.9
-663.625
-22189.8
-666.115
-21855.4
-668.557
-21519.8
-670.95
-21183.1
-673.297
-20845.2
-675.596
-20506.2
-677.849
-20166
-680.055
-19824.8
-682.215
-19482.6
-684.33
-19139.2
-686.399
-18794.9
-688.423
-18449.6
-690.403
-18103.3
-692.338
-17756.1
-694.23
-17408
-696.078
-17058.9
-697.883
-16709
-699.644
-16358.2
-701.364
-16006.5
-703.041
-15654.1
-704.675
-15300.8
-706.269
-14946.8
-707.821
-14592
-709.331
-14236.5
-710.801
-13880.2
-712.231
-13523.3
-713.62
-13165.7
-714.97
-12807.4
-716.279
-12448.5
-717.55
-12089
-718.781
-11728.9
-719.974
-11368.2
-721.127
-11006.9
-722.243
-10645.2
-723.32
-10282.8
-724.36
-9920.03
-725.362
-9556.73
-726.327
-9192.97
-727.255
-8828.76
-728.146
-8464.12
-729
-8099.07
-729.818
-7733.64
-730.6
-7367.82
-731.347
-7001.66
-732.058
-6635.15
-732.733
-6268.32
-733.374
-5901.19
-733.979
-5533.77
-734.55
-5166.09
-735.087
-4798.15
-735.588
-4429.98
-736.056
-4061.6
-736.489
-3693.01
-736.888
-3324.24
-737.252
-2955.3
-737.582
-2586.22
-737.877
-2217.01
-738.137
-1847.68
-738.362
-1478.27
-738.55
-1108.77
-738.703
-739.215
-738.82
-369.62
-738.901
-738.948
-810
2474.47
-1599.36
2409.56
-2349.91
2283.41
-3049.7
2118.93
-3694.52
1941.63
-4286.98
1774.08
-4834.58
1631.91
-5347.25
1522.66
-5835.24
1446.8
-6307.57
1400.01
-6771.33
1375.68
-7231.5
1366.92
-7691.24
1367.77
-8152.29
1373.71
-8615.41
1381.69
-9080.76
1389.87
-9548.18
1397.24
-10017.3
1403.39
-10487.8
1408.19
-10959.3
1411.69
-11431.4
1414.02
-11903.9
1415.29
-12376.3
1415.64
-12848.5
1415.18
-13320.3
1414
-13791.4
1412.19
-14261.7
1409.79
-14730.9
1406.88
-15199.1
1403.5
-15665.9
1399.67
-16131.3
1395.45
-16595.1
1390.85
-17057.3
1385.9
-17517.7
1380.61
-17976.2
1375.02
-18432.8
1369.12
-18887.2
1362.95
-19339.6
1356.49
-19789.7
1349.78
-20237.4
1342.82
-20682.8
1335.62
-21125.6
1328.18
-21565.9
1320.51
-22003.6
1312.62
-22438.6
1304.52
-22870.8
1296.21
-23300.2
1287.7
-23726.6
1278.99
-24150.1
1270.08
-24570.6
1260.98
-24987.9
1251.7
-25402.1
1242.24
-25813.1
1232.6
-26220.8
1222.78
-26625.2
1212.8
-27026.2
1202.65
-27423.8
1192.34
-27817.9
1181.86
-28208.4
1171.23
-28595.3
1160.45
-28978.6
1149.51
-29358.2
1138.43
-29734.1
1127.21
-30106.1
1115.84
-30474.4
1104.33
-30838.7
1092.69
-31199.2
1080.92
-31555.6
1069.02
-31908.1
1056.99
-32256.5
1044.84
-32600.8
1032.57
-32941
1020.18
-33277
1007.67
-33608.8
995.054
-33936.3
982.328
-34259.6
969.495
-34578.6
956.559
-34893.2
943.522
-35203.5
930.387
-35509.3
917.158
-35810.8
903.836
-36107.7
890.425
-36400.1
876.928
-36688
863.347
-36971.4
849.685
-37250.2
835.946
-37524.3
822.131
-37793.9
808.244
-38058.8
794.288
-38319
780.265
-38574.5
766.178
-38825.3
752.03
-39071.4
737.824
-39312.7
723.562
-39549.3
709.248
-39781
694.884
-40008
680.472
-40230.1
666.017
-40447.5
651.519
-40659.9
636.983
-40867.5
622.411
-41070.3
607.805
-41268.1
593.168
-41461.1
578.503
-41649.2
563.813
-41832.4
549.1
-42010.6
534.367
-42184
519.616
-42352.4
504.851
-42515.9
490.073
-42674.5
475.286
-42828.1
460.491
-42976.8
445.692
-43120.6
430.89
-43259.4
416.089
-43393.3
401.291
-43522.3
386.498
-43646.4
371.713
-43765.5
356.938
-43879.7
342.176
-43989
327.428
-44093.4
312.697
-44192.8
297.986
-44287.4
283.297
-44377.1
268.631
-44461.9
253.992
-44541.8
239.381
-44616.9
224.801
-44687.2
210.254
-44752.6
195.741
-44813.1
181.265
-44868.9
166.828
-44919.8
152.432
-44966
138.079
-45007.4
123.771
-45044.1
109.509
-45076
95.2965
-45103.2
81.1341
-45125.7
67.0241
-45143.5
52.9681
-45156.6
38.9681
-45165.1
25.0255
-45168.9
11.1423
-45168.2
-2.68012
-45162.9
-16.44
-45153
-30.1358
-45138.5
-43.7659
-45119.6
-57.3289
-45096.1
-70.8233
-45068.2
-84.2477
-45035.8
-97.6006
-44999
-110.881
-44957.7
-124.087
-44912.1
-137.217
-44862.2
-150.271
-44807.9
-163.247
-44749.4
-176.143
-44686.5
-188.96
-44619.4
-201.695
-44548.1
-214.347
-44472.6
-226.917
-44393
-239.401
-44309.2
-251.8
-44221.3
-264.113
-44129.3
-276.338
-44033.3
-288.475
-43933.2
-300.522
-43829.2
-312.48
-43721.2
-324.348
-43609.3
-336.124
-43493.5
-347.807
-43373.9
-359.398
-43250.4
-370.896
-43123.1
-382.299
-42992
-393.608
-42857.2
-404.822
-42718.7
-415.94
-42576.5
-426.962
-42430.7
-437.888
-42281.2
-448.716
-42128.2
-459.447
-41971.6
-470.08
-41811.6
-480.615
-41648
-491.052
-41481
-501.39
-41310.6
-511.629
-41136.8
-521.77
-40959.6
-531.81
-40779.2
-541.752
-40595.4
-551.593
-40408.4
-561.335
-40218.2
-570.978
-40024.9
-580.52
-39828.3
-589.962
-39628.7
-599.305
-39425.9
-608.547
-39220.2
-617.69
-39011.4
-626.733
-38799.6
-635.676
-38584.9
-644.52
-38367.2
-653.264
-38146.7
-661.909
-37923.3
-670.455
-37697.1
-678.901
-37468.2
-687.249
-37236.4
-695.498
-37002
-703.649
-36764.9
-711.702
-36525.1
-719.657
-36282.7
-727.514
-36037.7
-735.275
-35790.1
-742.938
-35540.1
-750.505
-35287.5
-757.976
-35032.5
-765.351
-34775.1
-772.63
-34515.2
-779.815
-34253
-786.905
-33988.5
-793.901
-33721.6
-800.802
-33452.5
-807.611
-33181.2
-814.327
-32907.6
-820.95
-32631.9
-827.482
-32354
-833.922
-32074
-840.271
-31791.9
-846.529
-31507.8
-852.698
-31221.6
-858.777
-30933.4
-864.768
-30643.3
-870.67
-30351.2
-876.484
-30057.2
-882.211
-29761.4
-887.851
-29463.6
-893.405
-29164.1
-898.874
-28862.8
-904.257
-28559.6
-909.557
-28254.8
-914.772
-27948.2
-919.904
-27640
-924.953
-27330.1
-929.92
-27018.6
-934.805
-26705.4
-939.609
-26390.7
-944.333
-26074.5
-948.978
-25756.7
-953.543
-25437.4
-958.029
-25116.7
-962.437
-24794.5
-966.768
-24470.9
-971.022
-24145.9
-975.2
-23819.5
-979.302
-23491.8
-983.328
-23162.8
-987.281
-22832.5
-991.159
-22500.9
-994.964
-22168
-998.696
-21834
-1002.36
-21498.7
-1005.94
-21162.3
-1009.46
-20824.7
-1012.91
-20486
-1016.28
-20146.2
-1019.59
-19805.3
-1022.83
-19463.4
-1026
-19120.4
-1029.1
-18776.4
-1032.13
-18431.4
-1035.1
-18085.5
-1038
-17738.6
-1040.84
-17390.8
-1043.61
-17042.1
-1046.31
-16692.5
-1048.95
-16342
-1051.53
-15990.7
-1054.04
-15638.6
-1056.49
-15285.7
-1058.88
-14932
-1061.21
-14577.6
-1063.47
-14222.4
-1065.67
-13866.5
-1067.82
-13509.9
-1069.9
-13152.6
-1071.92
-12794.7
-1073.88
-12436.2
-1075.79
-12077
-1077.63
-11717.2
-1079.42
-11356.9
-1081.15
-10996
-1082.82
-10634.6
-1084.44
-10272.6
-1086
-9910.16
-1087.5
-9547.22
-1088.94
-9183.82
-1090.33
-8819.97
-1091.67
-8455.69
-1092.95
-8091.01
-1094.18
-7725.93
-1095.35
-7360.48
-1096.47
-6994.68
-1097.53
-6628.53
-1098.54
-6262.07
-1099.5
-5895.31
-1100.41
-5528.26
-1101.27
-5160.94
-1102.07
-4793.37
-1102.82
-4425.56
-1103.52
-4057.54
-1104.17
-3689.32
-1104.77
-3320.92
-1105.32
-2952.36
-1105.81
-2583.64
-1106.25
-2214.8
-1106.64
-1845.84
-1106.98
-1476.79
-1107.26
-1107.66
-1107.49
-738.475
-1107.67
-369.248
-1107.79
-1107.86
-786.244
3260.2
-1554.29
3177.09
-2288.28
3016.88
-2977.61
2807.76
-3618.16
2581.68
-4211.66
2367.08
-4764.16
2183.92
-5284.07
2042.08
-5780.25
1942.5
-6260.74
1880
-6731.95
1846.41
-7198.58
1833.06
-7663.69
1832.39
-8129.07
1838.61
-8595.62
1847.76
-9063.66
1857.42
-9533.16
1866.26
-10003.9
1873.67
-10475.7
1879.45
-10948.1
1883.65
-11420.9
1886.37
-11893.9
1887.77
-12366.8
1888.01
-12839.3
1887.21
-13311.2
1885.48
-13782.5
1882.94
-14252.8
1879.65
-14722.1
1875.68
-15190.1
1871.1
-15656.9
1865.94
-16122.2
1860.26
-16585.9
1854.08
-17047.9
1847.45
-17508.2
1840.37
-17966.5
1832.88
-18422.8
1825
-18877.1
1816.74
-19329.2
1808.13
-19779.1
1799.17
-20226.6
1789.87
-20671.7
1780.25
-21114.3
1770.33
-21554.4
1760.1
-21991.8
1749.57
-22426.5
1738.76
-22858.4
1727.68
-23287.5
1716.32
-23713.7
1704.7
-24136.9
1692.82
-24557.1
1680.69
-24974.2
1668.32
-25388.1
1655.7
-25798.8
1642.84
-26206.2
1629.76
-26610.3
1616.44
-27011.1
1602.91
-27408.3
1589.16
-27802.1
1575.19
-28192.4
1561.02
-28579
1546.64
-28962
1532.07
-29341.3
1517.29
-29716.9
1502.33
-30088.7
1487.17
-30456.6
1471.83
-30820.7
1456.32
-31180.8
1440.62
-31537
1424.76
-31889.2
1408.72
-32237.3
1392.52
-32581.3
1376.16
-32921.2
1359.64
-33257
1342.97
-33588.5
1326.15
-33915.8
1309.19
-34238.8
1292.08
-34557.5
1274.84
-34871.9
1257.46
-35181.8
1239.95
-35487.4
1222.31
-35788.5
1204.55
-36085.2
1186.68
-36377.4
1168.69
-36665
1150.58
-36948.1
1132.37
-37226.6
1114.06
-37500.6
1095.64
-37769.9
1077.13
-38034.5
1058.53
-38294.5
1039.83
-38549.7
1021.06
-38800.3
1002.2
-39046.1
983.262
-39287.2
964.252
-39523.5
945.172
-39755
926.025
-39981.8
906.815
-40203.7
887.547
-40420.7
868.223
-40633
848.847
-40840.3
829.423
-41042.9
809.954
-41240.5
790.444
-41433.3
770.897
-41621.1
751.316
-41804.1
731.705
-41982.1
712.067
-42155.3
692.406
-42323.5
672.725
-42486.8
653.028
-42645.1
633.318
-42798.6
613.598
-42947.1
593.873
-43090.7
574.144
-43229.3
554.416
-43363
534.692
-43491.8
514.975
-43615.7
495.268
-43734.7
475.575
-43848.7
455.898
-43957.8
436.242
-44062
416.608
-44161.3
397
-44255.7
377.422
-44345.3
357.875
-44429.9
338.363
-44509.7
318.89
-44584.6
299.457
-44654.7
280.067
-44720
260.724
-44780.4
241.431
-44836
222.189
-44886.9
203.002
-44932.9
183.872
-44974.2
164.802
-45010.7
145.794
-45042.5
126.851
-45069.6
107.976
-45092
89.17
-45109.7
70.4365
-45122.7
51.7774
-45131.1
33.1952
-45134.8
14.6919
-45134
-3.73007
-45128.6
-22.0687
-45118.6
-40.3219
-45104.1
-58.4876
-45085
-76.5637
-45061.5
-94.5483
-45033.5
-112.439
-45001
-130.235
-44964.1
-147.934
-44922.9
-165.534
-44877.2
-183.033
-44827.2
-200.431
-44772.9
-217.724
-44714.3
-234.911
-44651.4
-251.992
-44584.3
-268.964
-44512.9
-285.826
-44437.4
-302.577
-44357.7
-319.215
-44273.9
-335.739
-44186
-352.147
-44094
-368.44
-43998
-384.614
-43897.9
-400.67
-43793.9
-416.606
-43685.9
-432.421
-43574
-448.114
-43458.3
-463.684
-43338.6
-479.131
-43215.1
-494.453
-43087.8
-509.65
-42956.8
-524.721
-42822
-539.665
-42683.5
-554.481
-42541.4
-569.169
-42395.6
-583.728
-42246.2
-598.158
-42093.2
-612.459
-41936.7
-626.628
-41776.7
-640.668
-41613.2
-654.575
-41446.3
-668.352
-41275.9
-681.997
-41102.2
-695.509
-40925.1
-708.889
-40744.7
-722.137
-40561.1
-735.251
-40374.2
-748.233
-40184.1
-761.082
-39990.8
-773.797
-39794.3
-786.38
-39594.8
-798.829
-39392.2
-811.145
-39186.5
-823.328
-38977.8
-835.378
-38766.2
-847.295
-38551.5
-859.08
-38334
-870.731
-38113.6
-882.251
-37890.4
-893.638
-37664.3
-904.893
-37435.5
-916.016
-37203.9
-927.008
-36969.6
-937.869
-36732.6
-948.599
-36493
-959.199
-36250.8
-969.669
-36005.9
-980.01
-35758.6
-990.221
-35508.7
-1000.3
-35256.3
-1010.26
-35001.4
-1020.08
-34744.2
-1029.78
-34484.5
-1039.36
-34222.5
-1048.8
-33958.1
-1058.13
-33691.5
-1067.32
-33422.6
-1076.39
-33151.4
-1085.34
-32878.1
-1094.17
-32602.5
-1102.87
-32324.8
-1111.45
-32045.1
-1119.91
-31763.2
-1128.25
-31479.2
-1136.47
-31193.3
-1144.57
-30905.3
-1152.55
-30615.4
-1160.41
-30323.6
-1168.16
-30029.8
-1175.79
-29734.2
-1183.31
-29436.7
-1190.71
-29137.4
-1197.99
-28836.3
-1205.16
-28533.4
-1212.22
-28228.8
-1219.17
-27922.5
-1226.01
-27614.5
-1232.74
-27304.9
-1239.35
-26993.6
-1245.86
-26680.8
-1252.26
-26366.3
-1258.56
-26050.3
-1264.75
-25732.8
-1270.83
-25413.8
-1276.81
-25093.3
-1282.68
-24771.4
-1288.45
-24448.1
-1294.12
-24123.4
-1299.68
-23797.3
-1305.15
-23469.9
-1310.51
-23141.1
-1315.78
-22811.1
-1320.94
-22479.8
-1326.01
-22147.2
-1330.99
-21813.5
-1335.86
-21478.5
-1340.64
-21142.4
-1345.33
-20805.1
-1349.92
-20466.7
-1354.42
-20127.2
-1358.82
-19786.6
-1363.13
-19445
-1367.36
-19102.3
-1371.49
-18758.6
-1375.53
-18414
-1379.48
-18068.3
-1383.35
-17721.8
-1387.13
-17374.3
-1390.82
-17025.9
-1394.42
-16676.6
-1397.94
-16326.4
-1401.37
-15975.5
-1404.72
-15623.7
-1407.98
-15271.1
-1411.16
-14917.7
-1414.26
-14563.6
-1417.28
-14208.8
-1420.22
-13853.2
-1423.07
-13497
-1425.84
-13140
-1428.54
-12782.5
-1431.15
-12424.2
-1433.69
-12065.4
-1436.15
-11706
-1438.53
-11346
-1440.83
-10985.4
-1443.06
-10624.3
-1445.21
-10262.7
-1447.29
-9900.62
-1449.29
-9538.03
-1451.21
-9174.97
-1453.07
-8811.47
-1454.85
-8447.54
-1456.55
-8083.21
-1458.19
-7718.48
-1459.75
-7353.38
-1461.24
-6987.93
-1462.66
-6622.14
-1464.01
-6256.03
-1465.28
-5889.61
-1466.49
-5522.92
-1467.63
-5155.95
-1468.7
-4788.74
-1469.71
-4421.29
-1470.64
-4053.62
-1471.5
-3685.76
-1472.3
-3317.71
-1473.03
-2949.5
-1473.69
-2581.15
-1474.28
-2212.66
-1474.8
-1844.06
-1475.24
-1475.36
-1475.62
-1106.59
-1475.93
-737.764
-1476.16
-368.895
-1476.32
-1476.42
-764.03
4023.71
-1511.89
3924.43
-2229.91
3734.4
-2908.81
3486.15
-3544.59
3216.96
-4138.28
2960.28
-4694.74
2739.89
-5220.97
2567.82
-5724.6
2445.65
-6212.7
2367.62
-6691.07
2324.3
-7164.03
2305.54
-7634.53
2302.4
-8104.38
2307.97
-8574.56
2317.46
-9045.52
2327.89
-9517.34
2337.6
-9989.96
2345.8
-10463.2
2352.19
-10936.8
2356.77
-11410.5
2359.64
-11884.2
2360.98
-12357.6
2360.94
-12830.6
2359.67
-13302.9
2357.3
-13774.3
2353.93
-14244.8
2349.67
-14714.2
2344.59
-15182.4
2338.76
-15649.1
2332.23
-16114.4
2325.05
-16578.1
2317.27
-17040
2308.92
-17500.2
2300.03
-17958.4
2290.63
-18414.6
2280.74
-18868.7
2270.39
-19320.7
2259.6
-19770.3
2248.37
-20217.7
2236.73
-20662.6
2224.69
-21105
2212.27
-21544.8
2199.47
-21982
2186.3
-22416.5
2172.78
-22848.2
2158.92
-23277.1
2144.72
-23703.1
2130.18
-24126
2115.33
-24546
2100.16
-24962.8
2084.69
-25376.5
2068.91
-25786.9
2052.84
-26194.1
2036.48
-26598
2019.84
-26998.4
2002.92
-27395.5
1985.73
-27789
1968.27
-28179
1950.56
-28565.4
1932.58
-28948.1
1914.36
-29327.2
1895.9
-29702.5
1877.19
-30074
1858.25
-30441.7
1839.08
-30805.5
1819.68
-31165.4
1800.07
-31521.3
1780.23
-31873.2
1760.19
-32221.1
1739.95
-32564.9
1719.5
-32904.5
1698.85
-33240
1678.02
-33571.3
1657
-33898.3
1635.8
-34221.1
1614.42
-34539.5
1592.86
-34853.6
1571.14
-35163.4
1549.26
-35468.7
1527.22
-35769.6
1505.03
-36066
1482.69
-36357.9
1460.2
-36645.3
1437.58
-36928.2
1414.82
-37206.5
1391.93
-37480.1
1368.91
-37749.2
1345.78
-38013.6
1322.53
-38273.3
1299.17
-38528.4
1275.7
-38778.7
1252.14
-39024.3
1228.47
-39265.2
1204.71
-39501.2
1180.87
-39732.5
1156.94
-39959
1132.94
-40180.7
1108.86
-40397.6
1084.71
-40609.6
1060.49
-40816.8
1036.22
-41019.1
1011.89
-41216.5
987.509
-41409
963.082
-41596.7
938.613
-41779.4
914.106
-41957.3
889.565
-42130.2
864.996
-42298.2
840.401
-42461.3
815.787
-42619.5
791.156
-42772.8
766.514
-42921.1
741.864
-43064.5
717.211
-43202.9
692.558
-43336.5
667.91
-43465.1
643.272
-43588.8
618.646
-43707.6
594.037
-43821.4
569.449
-43930.4
544.886
-44034.4
520.352
-44133.6
495.85
-44227.8
471.385
-44317.2
446.96
-44401.7
422.578
-44481.3
398.244
-44556.1
373.961
-44626
349.733
-44691.1
325.563
-44751.4
301.454
-44806.9
277.41
-44857.6
253.435
-44903.5
229.531
-44944.7
205.702
-44981.1
181.951
-45012.7
158.281
-45039.7
134.696
-45061.9
111.198
-45079.5
87.7895
-45092.4
64.4747
-45100.7
41.2558
-45104.4
18.1358
-45103.4
-4.88267
-45097.9
-27.7969
-45087.8
-50.6042
-45073.2
-73.3021
-45054.1
-95.8881
-45030.5
-118.36
-45002.4
-140.714
-44969.8
-162.95
-44932.9
-185.064
-44891.5
-207.055
-44845.8
-228.919
-44795.8
-250.656
-44741.4
-272.263
-44682.7
-293.738
-44619.8
-315.08
-44552.6
-336.285
-44481.2
-357.353
-44405.6
-378.282
-44325.9
-399.07
-44242
-419.716
-44154.1
-440.217
-44062.1
-460.573
-43966
-480.781
-43866
-500.841
-43761.9
-520.752
-43653.9
-540.511
-43542
-560.118
-43426.2
-579.571
-43306.5
-598.87
-43183.1
-618.013
-43055.8
-636.999
-42924.8
-655.828
-42790
-674.498
-42651.5
-693.009
-42509.4
-711.36
-42363.6
-729.549
-42214.2
-747.577
-42061.3
-765.443
-41904.8
-783.146
-41744.8
-800.685
-41581.4
-818.061
-41414.5
-835.272
-41244.2
-852.318
-41070.5
-869.199
-40893.5
-885.915
-40713.1
-902.465
-40529.5
-918.849
-40342.7
-935.067
-40152.7
-951.119
-39959.4
-967.004
-39763.1
-982.723
-39563.6
-998.275
-39361.1
-1013.66
-39155.5
-1028.88
-38946.9
-1043.93
-38735.3
-1058.82
-38520.8
-1073.54
-38303.4
-1088.1
-38083.1
-1102.49
-37860
-1116.71
-37634
-1130.77
-37405.3
-1144.67
-37173.8
-1158.4
-36939.7
-1171.97
-36702.8
-1185.37
-36463.3
-1198.61
-36221.2
-1211.69
-35976.5
-1224.61
-35729.3
-1237.37
-35479.5
-1249.96
-35227.3
-1262.4
-34972.6
-1274.67
-34715.5
-1286.79
-34455.9
-1298.74
-34194.1
-1310.54
-33929.9
-1322.19
-33663.4
-1333.68
-33394.7
-1345.01
-33123.7
-1356.19
-32850.5
-1367.21
-32575.1
-1378.08
-32297.6
-1388.8
-32018
-1399.36
-31736.4
-1409.78
-31452.6
-1420.05
-31166.9
-1430.16
-30879.1
-1440.13
-30589.4
-1449.96
-30297.7
-1459.63
-30004.2
-1469.16
-29708.8
-1478.55
-29411.5
-1487.79
-29112.4
-1496.89
-28811.5
-1505.85
-28508.9
-1514.67
-28204.5
-1523.35
-27898.4
-1531.89
-27590.6
-1540.29
-27281.2
-1548.56
-26970.2
-1556.69
-26657.6
-1564.68
-26343.4
-1572.55
-26027.6
-1580.27
-25710.3
-1587.87
-25391.6
-1595.34
-25071.4
-1602.67
-24749.7
-1609.88
-24426.6
-1616.96
-24102.2
-1623.91
-23776.3
-1630.73
-23449.2
-1637.43
-23120.7
-1644.01
-22790.9
-1650.46
-22459.9
-1656.79
-22127.6
-1663
-21794.1
-1669.09
-21459.4
-1675.06
-21123.6
-1680.92
-20786.6
-1686.65
-20448.5
-1692.27
-20109.2
-1697.77
-19768.9
-1703.16
-19427.6
-1708.43
-19085.2
-1713.59
-18741.8
-1718.64
-18397.5
-1723.58
-18052.1
-1728.4
-17705.8
-1733.12
-17358.6
-1737.73
-17010.5
-1742.23
-16661.6
-1746.62
-16311.7
-1750.91
-15961.1
-1755.09
-15609.6
-1759.17
-15257.3
-1763.14
-14904.2
-1767.01
-14550.4
-1770.78
-14195.9
-1774.45
-13840.7
-1778.01
-13484.7
-1781.47
-13128.1
-1784.84
-12770.8
-1788.11
-12412.9
-1791.27
-12054.4
-1794.34
-11695.3
-1797.32
-11335.7
-1800.19
-10975.4
-1802.98
-10614.7
-1805.66
-10253.4
-1808.25
-9891.58
-1810.75
-9529.31
-1813.16
-9166.58
-1815.47
-8803.41
-1817.69
-8439.81
-1819.82
-8075.8
-1821.86
-7711.41
-1823.81
-7346.64
-1825.68
-6981.52
-1827.45
-6616.06
-1829.13
-6250.29
-1830.73
-5884.21
-1832.24
-5517.85
-1833.66
-5151.22
-1835
-4784.34
-1836.25
-4417.23
-1837.42
-4049.9
-1838.5
-3682.37
-1839.49
-3314.66
-1840.4
-2946.79
-1841.22
-2578.77
-1841.96
-2210.62
-1842.61
-1842.36
-1843.17
-1474.01
-1843.64
-1105.57
-1844.02
-737.084
-1844.31
-368.553
-1844.52
-1844.63
-741.641
4764.83
-1469.21
4651.47
-2171.05
4435.74
-2839.1
4153.69
-3469.56
3846.93
-4062.88
3553.11
-4622.78
3299.29
-5154.97
3099.53
-5665.87
2956.07
-6161.59
2862.85
-6647.26
2809.49
-7126.83
2784.63
-7603.06
2778.15
-8077.74
2782.17
-8551.94
2791.17
-9026.18
2801.65
-9500.68
2811.62
-9975.47
2820.1
-10450.4
2826.68
-10925.5
2831.31
-11400.4
2834.07
-11875
2835.13
-12349.2
2834.63
-12822.7
2832.74
-13295.5
2829.6
-13767.4
2825.32
-14238.2
2820
-14707.8
2813.74
-15176.1
2806.59
-15643
2798.64
-16108.4
2789.93
-16572.1
2780.5
-17034
2770.4
-17494.2
2759.67
-17952.3
2748.34
-18408.5
2736.43
-18862.5
2723.96
-19314.4
2710.97
-19764
2697.47
-20211.2
2683.48
-20656
2669.01
-21098.2
2654.07
-21537.9
2638.7
-21975
2622.88
-22409.3
2606.64
-22840.8
2589.99
-23269.5
2572.94
-23695.3
2555.49
-24118.1
2537.65
-24537.8
2519.44
-24954.5
2500.87
-25368
2481.93
-25778.2
2462.64
-26185.2
2443
-26588.8
2423.03
-26989.1
2402.72
-27385.9
2382.09
-27779.2
2361.14
-28169
2339.88
-28555.2
2318.31
-28937.7
2296.45
-29316.6
2274.29
-29691.7
2251.84
-30063
2229.11
-30430.5
2206.11
-30794.1
2182.83
-31153.7
2159.29
-31509.4
2135.5
-31861.1
2111.45
-32208.8
2087.15
-32552.3
2062.62
-32891.7
2037.85
-33227
2012.85
-33558.1
1987.62
-33884.9
1962.18
-34207.4
1936.53
-34525.7
1910.67
-34839.5
1884.61
-35149.1
1858.36
-35454.2
1831.91
-35754.8
1805.28
-36051
1778.48
-36342.8
1751.5
-36629.9
1724.35
-36912.6
1697.04
-37190.6
1669.58
-37464.1
1641.97
-37732.9
1614.21
-37997.1
1586.32
-38256.6
1558.29
-38511.5
1530.14
-38761.6
1501.86
-39007
1473.47