/*--------------------------------*- C++ -*----------------------------------*\
| =========                 |                                                 |
| \\      /  F ield         | OpenFOAM: The Open Source CFD Toolbox           |
|  \\    /   O peration     | Version:  2212                                  |
|   \\  /    A nd           | Website:  www.openfoam.com                      |
|    \\/     M anipulation  |                                                 |
\*---------------------------------------------------------------------------*/
FoamFile
{
    version     2.0;
    format      ascii;
    arch        "LSB;label=32;scalar=64";
    class       surfaceScalarField;
    location    "350";
    object      phi;
}
// * * * * * * * * * * * * * * * * * * * * * * * * * * * * * * * * * * * * * //

dimensions      [1 0 -1 0 0 0 0];

oriented        oriented;

internalField   nonuniform List<scalar> 
408640
(
-2307.47
2305.24
-4602.82
2294.59
-6872.69
2269.1
-9104.55
2231.09
-11287.8
2182.48
-13414.1
2125.49
-15477.4
2062.46
-17473.9
1995.69
-19402.1
1927.32
-21262
1859.12
-23055.4
1792.52
-24784.7
1728.53
-26453.4
1667.87
-28065.1
1610.9
-29623.7
1557.78
-31132.9
1508.43
-32596.3
1462.68
-34017.2
1420.22
-35398.6
1380.71
-36743.1
1343.79
-38052.9
1309.11
-39329.9
1276.33
-40575.8
1245.15
-41791.7
1215.29
-42978.9
1186.53
-44138.2
1158.66
-45270.4
1131.52
-46376
1104.97
-47455.6
1078.9
-48509.5
1053.24
-49538
1027.92
-50541.5
1002.9
-51520.3
978.13
-52474.5
953.602
-53404.5
929.296
-54310.3
905.199
-55192.2
881.307
-56050.4
857.613
-56885.2
834.117
-57696.6
810.816
-58484.9
787.709
-59250.3
764.798
-59993
742.081
-60713.2
719.561
-61411
697.237
-62086.7
675.111
-62740.5
653.184
-63372.5
631.457
-63983
609.931
-64572.2
588.61
-65140.3
567.493
-65687.4
546.583
-66213.9
525.882
-66719.8
505.391
-67205.5
485.113
-67671.1
465.049
-68116.8
445.203
-68543
425.575
-68949.7
406.168
-69337.2
386.984
-69705.8
368.025
-70055.6
349.294
-70386.9
330.792
-70700
312.521
-70995
294.484
-71272.1
276.682
-71531.8
259.117
-71774.1
241.791
-71999.3
224.706
-72207.6
207.863
-72399.4
191.264
-72574.8
174.911
-72734.1
158.804
-72877.5
142.945
-73005.3
127.335
-73117.8
111.975
-73215.1
96.8661
-73297.6
82.009
-73365.4
67.4044
-73419
53.0527
-73458.4
38.9545
-73483.9
25.11
-73495.9
11.5194
-73494.5
-1.81733
-73480
-14.9002
-73452.7
-27.7294
-73412.8
-40.3053
-73360.6
-52.6284
-73296.3
-64.6992
-73220.2
-76.5185
-73132.6
-88.087
-73033.5
-99.4057
-72923.5
-110.476
-72802.6
-121.298
-72671.1
-131.874
-72529.2
-142.205
-72377.3
-152.293
-72215.6
-162.139
-72044.2
-171.744
-71863.4
-181.112
-71673.5
-190.243
-71474.8
-199.139
-71267.3
-207.803
-71051.4
-216.237
-70827.3
-224.443
-70595.2
-232.422
-70355.4
-240.179
-70108
-247.714
-69853.3
-255.032
-69591.4
-262.133
-69322.7
-269.021
-69047.3
-275.698
-68765.5
-282.167
-68477.3
-288.432
-68183.1
-294.494
-67883
-300.357
-67577.3
-306.023
-67266.1
-311.496
-66949.5
-316.778
-66627.9
-321.872
-66301.4
-326.782
-65970.2
-331.51
-65634.3
-336.06
-65294.1
-340.434
-64949.7
-344.636
-64601.3
-348.668
-64249
-352.535
-63893
-356.238
-63533.4
-359.781
-63170.4
-363.168
-62804.3
-366.4
-62435
-369.482
-62062.7
-372.416
-61687.7
-375.205
-61310.1
-377.853
-60929.9
-380.363
-60547.3
-382.737
-60162.5
-384.978
-59775.6
-387.09
-59386.6
-389.076
-58995.8
-390.938
-58603.3
-392.679
-58209.1
-394.302
-57813.5
-395.811
-57416.4
-397.207
-57018
-398.495
-56618.5
-399.675
-56217.8
-400.752
-55816.2
-401.728
-55413.7
-402.606
-55010.4
-403.388
-54606.4
-404.077
-54201.8
-404.676
-53796.7
-405.186
-53391.2
-405.611
-52985.3
-405.953
-52579.1
-406.215
-52172.8
-406.398
-51766.3
-406.506
-51359.8
-406.54
-50953.4
-406.503
-50547
-406.397
-50140.8
-406.225
-49734.8
-405.988
-49329.2
-405.688
-48923.9
-405.328
-48519
-404.91
-48114.5
-404.435
-47710.6
-403.906
-47307.3
-403.325
-46904.6
-402.693
-46502.5
-402.013
-46101.2
-401.286
-45700.7
-400.514
-45300.9
-399.698
-44902.1
-398.841
-44504.1
-397.945
-44107
-397.01
-43710.9
-396.038
-43315.8
-395.031
-42921.8
-393.991
-42528.8
-392.919
-42136.9
-391.816
-41746.1
-390.684
-41356.5
-389.524
-40968
-388.338
-40580.8
-387.127
-40194.8
-385.892
-39810.1
-384.635
-39426.6
-383.357
-39044.4
-382.058
-38663.6
-380.741
-38284
-379.406
-37905.8
-378.054
-37529
-376.687
-37153.6
-375.305
-36779.5
-373.91
-36406.8
-372.503
-36035.6
-371.084
-35665.8
-369.654
-35297.4
-368.216
-34930.5
-366.768
-34565
-365.313
-34200.9
-363.851
-33838.4
-362.383
-33477.3
-360.909
-33117.6
-359.431
-32759.5
-357.95
-32402.8
-356.465
-32047.6
-354.978
-31693.9
-353.49
-31341.7
-352
-30991
-350.511
-30641.7
-349.022
-30294
-347.533
-29947.7
-346.047
-29602.9
-344.563
-29259.5
-343.081
-28917.7
-341.603
-28577.3
-340.129
-28238.4
-338.659
-27901
-337.194
-27565
-335.734
-27230.4
-334.28
-26897.3
-332.833
-26565.6
-331.392
-26235.4
-329.958
-25906.6
-328.532
-25579.2
-327.113
-25253.2
-325.703
-24928.6
-324.302
-24605.4
-322.91
-24283.6
-321.527
-23963.2
-320.154
-23644.1
-318.791
-23326.3
-317.438
-23009.9
-316.096
-22694.8
-314.765
-22381.1
-313.445
-22068.6
-312.137
-21757.5
-310.84
-21447.6
-309.555
-21139
-308.283
-20831.6
-307.023
-20525.5
-305.776
-20220.7
-304.542
-19917
-303.321
-19614.6
-302.113
-19313.3
-300.919
-19013.2
-299.738
-18714.3
-298.571
-18416.6
-297.419
-18119.9
-296.28
-17824.4
-295.157
-17530
-294.047
-17236.7
-292.952
-16944.5
-291.872
-16653.3
-290.807
-16363.2
-289.758
-16074.1
-288.723
-15786.1
-287.704
-15499
-286.7
-15212.9
-285.711
-14927.8
-284.739
-14643.7
-283.782
-14360.4
-282.841
-14078.2
-281.916
-13796.8
-281.007
-13516.3
-280.114
-13236.7
-279.237
-12957.9
-278.376
-12680
-277.532
-12402.9
-276.704
-12126.7
-275.893
-11851.2
-275.098
-11576.5
-274.32
-11302.5
-273.559
-11029.3
-272.814
-10756.9
-272.086
-10485.1
-271.375
-10214
-270.68
-9943.65
-270.003
-9673.92
-269.342
-9404.83
-268.699
-9136.37
-268.072
-8868.51
-267.463
-8601.25
-266.871
-8334.56
-266.296
-8068.43
-265.738
-7802.84
-265.197
-7537.77
-264.673
-7273.21
-264.167
-7009.13
-263.678
-6745.53
-263.206
-6482.38
-262.751
-6219.67
-262.314
-5957.38
-261.895
-5695.49
-261.492
-5433.98
-261.107
-5172.84
-260.739
-4912.05
-260.389
-4651.6
-260.057
-4391.46
-259.741
-4131.61
-259.443
-3872.05
-259.163
-3612.75
-258.901
-3353.69
-258.655
-3094.86
-258.428
-2836.24
-258.219
-2577.81
-258.027
-2319.55
-257.853
-2061.45
-257.698
-1803.49
-257.561
-1545.64
-257.443
-1287.9
-257.343
-1030.23
-257.263
-772.625
-257.201
-515.064
-257.158
-257.527
-257.133
-257.124
-2288.23
4592.72
-4565.6
4571.19
-6819.3
4522.04
-9037.56
4448.58
-11210.4
4354.56
-13329.8
4244.02
-15389.5
4121.42
-17385.8
3991.1
-19316.4
3857.12
-21181.1
3722.93
-22980.7
3591.32
-24717.4
3464.35
-26393.8
3343.47
-28013.2
3229.53
-29579.1
3122.91
-31095
3023.58
-32564.4
2931.26
-33990.3
2845.43
-35375.8
2765.48
-36723.5
2690.75
-38035.6
2620.56
-39314.2
2554.25
-40561
2491.24
-41777.4
2430.99
-42964.5
2373.01
-44123.4
2316.91
-45254.9
2262.35
-46359.6
2209.03
-47438.1
2156.75
-48490.8
2105.32
-49518.1
2054.6
-50520.4
2004.5
-51497.8
1954.95
-52450.7
1905.88
-53379.3
1857.26
-54283.8
1809.08
-55164.4
1761.31
-56021.4
1713.94
-56854.8
1666.96
-57665
1620.38
-58452.1
1574.19
-59216.3
1528.39
-59957.8
1482.98
-60676.8
1437.96
-61373.5
1393.33
-62048.1
1349.1
-62700.7
1305.27
-63331.7
1261.84
-63941.2
1218.81
-64529.3
1176.19
-65096.4
1133.97
-65642.5
1092.18
-66168
1050.79
-66673
1009.83
-67157.7
969.296
-67622.4
929.189
-68067.3
889.515
-68492.5
850.279
-68898.4
811.484
-69285.1
773.135
-69652.8
735.237
-70001.9
697.793
-70332.4
660.807
-70644.7
624.284
-70939
588.228
-71215.4
552.643
-71474.4
517.531
-71716
482.898
-71940.5
448.745
-72148.2
415.077
-72339.4
381.897
-72514.1
349.208
-72672.8
317.012
-72815.7
285.311
-72942.9
254.109
-73054.8
223.406
-73151.6
193.206
-73233.6
163.509
-73301
134.316
-73354
105.63
-73392.9
77.4504
-73418.1
49.7781
-73429.6
22.6134
-73427.8
-4.04347
-73412.9
-30.1928
-73385.3
-55.8349
-73345
-80.9706
-73292.5
-105.601
-73227.8
-129.726
-73151.4
-153.349
-73063.4
-176.47
-72964.2
-199.092
-72853.8
-221.216
-72732.7
-242.846
-72600.9
-263.983
-72458.9
-284.63
-72306.8
-304.79
-72144.8
-324.467
-71973.3
-343.664
-71792.3
-362.384
-71602.3
-380.632
-71403.4
-398.411
-71195.8
-415.725
-70979.8
-432.578
-70755.6
-448.976
-70523.5
-464.922
-70283.5
-480.422
-70036.1
-495.48
-69781.3
-510.101
-69519.5
-524.29
-69250.8
-538.054
-68975.4
-551.396
-68693.5
-564.322
-68405.4
-576.839
-68111.2
-588.952
-67811.2
-600.665
-67505.5
-611.986
-67194.4
-622.92
-66877.9
-633.473
-66556.4
-643.651
-66230
-653.46
-65898.8
-662.906
-65563.1
-671.996
-65223.1
-680.734
-64878.8
-689.128
-64530.5
-697.183
-64178.4
-704.906
-63822.6
-712.304
-63463.2
-719.381
-63100.4
-726.145
-62734.4
-732.601
-62365.3
-738.756
-61993.3
-744.616
-61618.5
-750.187
-61241.1
-755.475
-60861.1
-760.486
-60478.8
-765.226
-60094.3
-769.702
-59707.6
-773.919
-59318.9
-777.883
-58928.4
-781.6
-58536.2
-785.076
-58142.3
-788.316
-57746.9
-791.327
-57350.1
-794.114
-56952.1
-796.683
-56552.8
-799.039
-56152.5
-801.187
-55751.2
-803.134
-55349
-804.885
-54946
-806.444
-54542.4
-807.817
-54138.1
-809.009
-53733.4
-810.026
-53328.2
-810.872
-52922.7
-811.552
-52516.9
-812.071
-52110.9
-812.434
-51704.8
-812.645
-51298.7
-812.71
-50892.6
-812.633
-50486.6
-812.418
-50080.8
-812.069
-49675.2
-811.592
-49269.9
-810.99
-48865
-810.267
-48460.5
-809.428
-48056.4
-808.476
-47652.9
-807.416
-47250
-806.251
-46847.7
-804.986
-46446.1
-803.623
-46045.1
-802.167
-45645
-800.621
-45245.7
-798.989
-44847.2
-797.273
-44449.6
-795.478
-44053
-793.607
-43657.3
-791.662
-43262.6
-789.647
-42869
-787.566
-42476.4
-785.42
-42084.9
-783.214
-41694.6
-780.949
-41305.4
-778.629
-40917.4
-776.256
-40530.6
-773.833
-40145
-771.363
-39760.7
-768.848
-39377.6
-766.291
-38995.9
-763.693
-38615.4
-761.058
-38236.3
-758.388
-37858.5
-755.684
-37482.1
-752.95
-37107.1
-750.187
-36733.5
-747.397
-36361.2
-744.582
-35990.4
-741.744
-35621
-738.886
-35253.1
-736.009
-34886.5
-733.114
-34521.5
-730.204
-34157.9
-727.28
-33795.7
-724.344
-33435
-721.398
-33075.8
-718.442
-32718.1
-715.48
-32361.8
-712.511
-32007.1
-709.538
-31653.8
-706.561
-31302
-703.584
-30951.7
-700.605
-30602.8
-697.628
-30255.5
-694.652
-29909.6
-691.68
-29565.2
-688.712
-29222.3
-685.75
-28880.9
-682.795
-28540.9
-679.847
-28202.4
-676.908
-27865.4
-673.979
-27529.8
-671.06
-27195.6
-668.154
-26862.9
-665.259
-26531.7
-662.379
-26201.9
-659.512
-25873.4
-656.661
-25546.5
-653.825
-25220.9
-651.006
-24896.7
-648.205
-24573.9
-645.421
-24252.4
-642.656
-23932.4
-639.911
-23613.7
-637.186
-23296.3
-634.482
-22980.3
-631.799
-22665.7
-629.138
-22352.3
-626.499
-22040.2
-623.883
-21729.5
-621.291
-21420
-618.723
-21111.8
-616.179
-20804.8
-613.661
-20499.1
-611.168
-20194.6
-608.7
-19891.3
-606.259
-19589.2
-603.845
-19288.4
-601.457
-18988.7
-599.097
-18690.1
-596.765
-18392.7
-594.461
-18096.5
-592.185
-17801.4
-589.938
-17507.3
-587.721
-17214.4
-585.532
-16922.5
-583.373
-16631.8
-581.245
-16342
-579.146
-16053.3
-577.078
-15765.6
-575.04
-15478.9
-573.033
-15193.2
-571.057
-14908.4
-569.113
-14624.7
-567.2
-14341.8
-565.319
-14059.9
-563.47
-13778.9
-561.652
-13498.7
-559.867
-13219.5
-558.115
-12941.1
-556.394
-12663.5
-554.707
-12386.8
-553.052
-12110.9
-551.43
-11835.8
-549.842
-11561.4
-548.286
-11287.8
-546.764
-11015
-545.275
-10742.9
-543.82
-10471.5
-542.398
-10200.7
-541.011
-9930.71
-539.656
-9661.32
-538.336
-9392.58
-537.05
-9124.47
-535.798
-8856.96
-534.579
-8590.04
-533.395
-8323.7
-532.246
-8057.92
-531.13
-7792.67
-530.049
-7527.95
-529.003
-7263.73
-527.99
-7000
-527.013
-6736.74
-526.07
-6473.93
-525.161
-6211.56
-524.287
-5949.61
-523.448
-5688.06
-522.644
-5426.9
-521.874
-5166.1
-521.139
-4905.65
-520.439
-4645.53
-519.774
-4385.73
-519.144
-4126.22
-518.549
-3867
-517.989
-3608.03
-517.463
-3349.31
-516.974
-3090.82
-516.519
-2832.54
-516.1
-2574.45
-515.717
-2316.53
-515.37
-2058.76
-515.059
-1801.14
-514.785
-1543.63
-514.549
-1286.22
-514.35
-1028.89
-514.189
-771.622
-514.066
-514.397
-513.981
-257.196
-513.931
-513.917
-2266.66
6858.62
-4523.08
6826.85
-6757.77
6755.97
-8960.02
6650.05
-11120.5
6514.24
-13231.5
6354.18
-15287
6176.08
-17282.8
5986.07
-19216.4
5789.92
-21087
5592.59
-22894.6
5398.14
-24640.8
5209.66
-26327.5
5029.38
-27957.5
4858.69
-29533.7
4698.3
-31059.2
4548.35
-32537.2
4408.53
-33970.8
4278.24
-35362.7
4156.69
-36715.6
4042.96
-38031.9
3936.13
-39313.6
3835.26
-40562.5
3739.5
-41780.2
3648.04
-42968.1
3560.17
-44127.1
3475.29
-45258.2
3392.86
-46362.3
3312.43
-47439.9
3233.67
-48491.5
3156.27
-49517.5
3080.02
-50518.4
3004.76
-51494.4
2930.35
-52445.9
2856.71
-53373
2783.77
-54276.1
2711.5
-55155.2
2639.85
-56010.7
2568.82
-56842.8
2498.38
-57651.5
2428.54
-58437.2
2359.29
-59200.1
2290.62
-59940.2
2222.54
-60657.9
2155.05
-61353.3
2088.14
-62026.6
2021.83
-62678.1
1956.12
-63307.8
1891
-63916.1
1826.49
-64503.1
1762.59
-65069
1699.3
-65614
1636.63
-66138.4
1574.59
-66642.3
1513.18
-67125.9
1452.41
-67589.6
1392.27
-68033.4
1332.79
-68457.6
1273.97
-68862.5
1215.8
-69248.2
1158.31
-69615
1101.49
-69963.1
1045.35
-70292.7
989.897
-70604.1
935.139
-70897.4
881.081
-71173
827.729
-71431.1
775.088
-71671.9
723.164
-71895.6
671.961
-72102.5
621.485
-72292.8
571.741
-72466.8
522.732
-72624.8
474.463
-72766.9
426.937
-72893.4
380.159
-73004.6
334.13
-73100.7
288.854
-73182
244.333
-73248.7
200.57
-73301.1
157.565
-73339.4
115.32
-73363.9
73.8364
-73374.9
33.1139
-73372.5
-6.84705
-73357.1
-46.0467
-73328.9
-84.4857
-73288.1
-122.165
-73235
-159.086
-73169.9
-195.251
-73093
-230.661
-73004.6
-265.319
-72904.8
-299.228
-72794
-332.391
-72672.5
-364.812
-72540.3
-396.494
-72397.9
-427.441
-72245.4
-457.659
-72083.1
-487.152
-71911.2
-515.924
-71730
-543.982
-71539.6
-571.331
-71340.4
-597.977
-71132.6
-623.926
-70916.3
-649.184
-70691.8
-673.759
-70459.4
-697.657
-70219.3
-720.885
-69971.7
-743.451
-69716.7
-765.362
-69454.7
-786.626
-69185.8
-807.25
-68910.2
-827.243
-68628.3
-846.614
-68340
-865.369
-68045.7
-883.518
-67745.6
-901.07
-67439.8
-918.032
-67128.6
-934.415
-66812.1
-950.226
-66490.6
-965.475
-66164.1
-980.17
-65832.9
-994.322
-65497.3
-1007.94
-65157.2
-1021.03
-64813
-1033.6
-64464.7
-1045.67
-64112.6
-1057.24
-63756.8
-1068.32
-63397.5
-1078.92
-63034.8
-1089.05
-62668.9
-1098.72
-62299.9
-1107.94
-61928
-1116.71
-61553.3
-1125.05
-61176
-1132.97
-60796.2
-1140.48
-60414
-1147.57
-60029.6
-1154.27
-59643.1
-1160.59
-59254.6
-1166.52
-58864.3
-1172.08
-58472.2
-1177.29
-58078.5
-1182.13
-57683.3
-1186.64
-57286.8
-1190.81
-56888.9
-1194.65
-56489.9
-1198.18
-56089.8
-1201.39
-55688.7
-1204.3
-55286.8
-1206.91
-54884.1
-1209.24
-54480.7
-1211.29
-54076.7
-1213.07
-53672.2
-1214.59
-53267.3
-1215.85
-52862.1
-1216.86
-52456.6
-1217.63
-52050.9
-1218.17
-51645.1
-1218.48
-51239.3
-1218.57
-50833.5
-1218.45
-50427.9
-1218.12
-50022.4
-1217.59
-49617.1
-1216.87
-49212.2
-1215.96
-48807.6
-1214.87
-48403.4
-1213.61
-47999.7
-1212.17
-47596.5
-1210.58
-47193.9
-1208.83
-46792
-1206.92
-46390.7
-1204.88
-45990.2
-1202.69
-45590.4
-1200.36
-45191.4
-1197.91
-44793.3
-1195.34
-44396.1
-1192.64
-43999.8
-1189.83
-43604.5
-1186.91
-43210.2
-1183.88
-42817
-1180.76
-42424.8
-1177.54
-42033.7
-1174.23
-41643.7
-1170.83
-41254.9
-1167.34
-40867.3
-1163.78
-40480.9
-1160.15
-40095.7
-1156.44
-39711.8
-1152.67
-39329.1
-1148.83
-38947.8
-1144.93
-38567.7
-1140.98
-38189
-1136.97
-37811.6
-1132.91
-37435.6
-1128.81
-37061
-1124.67
-36687.8
-1120.48
-36315.9
-1116.26
-35945.5
-1112
-35576.5
-1107.71
-35209
-1103.4
-34842.9
-1099.05
-34478.2
-1094.69
-34115
-1090.3
-33753.2
-1085.9
-33393
-1081.48
-33034.2
-1077.05
-32676.8
-1072.6
-32321
-1068.15
-31966.6
-1063.69
-31613.8
-1059.23
-31262.4
-1054.76
-30912.4
-1050.29
-30564
-1045.83
-30217.1
-1041.37
-29871.6
-1036.91
-29527.6
-1032.46
-29185.1
-1028.02
-28844.1
-1023.58
-28504.5
-1019.16
-28166.4
-1014.76
-27829.8
-1010.36
-27494.6
-1005.99
-27160.9
-1001.63
-26828.6
-997.287
-26497.7
-992.967
-26168.3
-988.668
-25840.3
-984.392
-25513.7
-980.14
-25188.5
-975.913
-24864.7
-971.712
-24542.3
-967.538
-24221.2
-963.393
-23901.6
-959.276
-23583.3
-955.19
-23266.3
-951.135
-22950.7
-947.112
-22636.4
-943.122
-22323.4
-939.165
-22011.7
-935.243
-21701.4
-931.356
-21392.3
-927.505
-21084.4
-923.691
-20777.8
-919.915
-20472.5
-916.177
-20168.4
-912.477
-19865.5
-908.817
-19563.8
-905.197
-19263.3
-901.617
-18964
-898.078
-18665.8
-894.582
-18368.8
-891.127
-18073
-887.715
-17778.2
-884.346
-17484.5
-881.021
-17192
-877.74
-16900.5
-874.503
-16610.1
-871.311
-16320.7
-868.164
-16032.4
-865.063
-15745
-862.008
-15458.7
-858.999
-15173.4
-856.037
-14889
-853.122
-14605.6
-850.254
-14323.1
-847.433
-14041.5
-844.661
-13760.9
-841.936
-13481.1
-839.26
-13202.2
-836.632
-12924.2
-834.053
-12647
-831.523
-12370.6
-829.042
-12095
-826.611
-11820.3
-824.229
-11546.3
-821.897
-11273.1
-819.615
-11000.6
-817.383
-10728.8
-815.201
-10457.7
-813.069
-10187.4
-810.989
-9917.68
-808.958
-9648.65
-806.979
-9380.26
-805.051
-9112.5
-803.173
-8845.34
-801.347
-8578.77
-799.572
-8312.78
-797.848
-8047.34
-796.176
-7782.44
-794.555
-7518.06
-792.986
-7254.19
-791.469
-6990.8
-790.003
-6727.89
-788.589
-6465.43
-787.227
-6203.4
-785.917
-5941.79
-784.659
-5680.59
-783.453
-5419.76
-782.299
-5159.31
-781.197
-4899.2
-780.148
-4639.42
-779.151
-4379.96
-778.206
-4120.8
-777.313
-3861.91
-776.474
-3603.29
-775.686
-3344.91
-774.952
-3086.76
-774.27
-2828.81
-773.642
-2571.06
-773.068
-2313.48
-772.547
-2056.06
-772.081
-1798.77
-771.671
-1541.6
-771.316
-1284.53
-771.018
-1027.54
-770.777
-770.608
-770.593
-513.721
-770.465
-256.857
-770.392
-770.371
-2238.51
9096.37
-4467.77
9055.36
-6677.83
8965.26
-8859.28
8830.71
-11003.7
8657.82
-13103.8
8453.45
-15153.7
8225.19
-17149.1
7980.6
-19086.9
7726.87
-20965.5
7470.25
-22784.2
7215.97
-24543.5
6968.11
-26244.6
6729.68
-27889.4
6502.7
-29480.3
6288.34
-31019.7
6087.01
-32510.5
5898.57
-33955.5
5722.44
-35357.3
5557.74
-36718.5
5403.44
-38041.5
5258.43
-39328.5
5121.55
-40581.4
4991.72
-41801.9
4867.91
-42991.6
4749.17
-44151.6
4634.67
-45283.1
4523.7
-46387
4415.63
-47463.9
4309.97
-48514.6
4206.29
-49539.5
4104.28
-50539
4003.68
-51513.6
3904.3
-52463.5
3806.01
-53389.1
3708.7
-54290.5
3612.31
-55168
3516.78
-56021.9
3422.08
-56852.4
3328.2
-57659.5
3235.11
-58443.7
3142.81
-59205
3051.3
-59943.6
2960.57
-60659.8
2870.62
-61353.7
2781.46
-62025.5
2693.09
-62675.5
2605.52
-63303.8
2518.74
-63910.7
2432.77
-64496.3
2347.61
-65060.8
2263.26
-65604.5
2179.75
-66127.5
2097.06
-66630.1
2015.22
-67112.5
1934.22
-67574.9
1854.09
-68017.4
1774.81
-68440.4
1696.41
-68844.1
1618.9
-69228.6
1542.27
-69594.2
1466.55
-69941.1
1391.73
-70269.5
1317.83
-70579.8
1244.85
-70872
1172.81
-71146.5
1101.71
-71403.5
1031.55
-71643.2
962.351
-71865.8
894.114
-72071.7
826.845
-72261
760.552
-72434
695.239
-72590.9
630.913
-72732
567.578
-72857.6
505.239
-72967.8
443.9
-73063
383.565
-73143.4
324.237
-73209.2
265.918
-73260.7
208.611
-73298.1
152.317
-73321.8
97.0379
-73331.9
42.774
-73328.7
-10.4744
-73312.5
-62.7078
-73283.4
-113.927
-73241.9
-164.133
-73188.1
-213.328
-73122.2
-261.515
-73044.6
-308.695
-72955.4
-354.873
-72855
-400.052
-72743.6
-444.237
-72621.3
-487.432
-72488.6
-529.642
-72345.5
-570.872
-72192.4
-611.13
-72029.5
-650.421
-71857.1
-688.752
-71675.3
-726.13
-71484.4
-762.563
-71284.7
-798.059
-71076.3
-832.625
-70859.6
-866.271
-70634.7
-899.006
-70401.8
-930.839
-70161.2
-961.778
-69913.2
-991.835
-69657.8
-1021.02
-69395.4
-1049.34
-69126.2
-1076.81
-68850.3
-1103.44
-68568
-1129.23
-68279.4
-1154.21
-67984.8
-1178.38
-67684.4
-1201.75
-67378.4
-1224.34
-67066.9
-1246.16
-66750.2
-1267.21
-66428.4
-1287.51
-66101.8
-1307.08
-65770.4
-1325.92
-65434.6
-1344.05
-65094.3
-1361.48
-64750
-1378.22
-64401.6
-1394.28
-64049.4
-1409.68
-63693.5
-1424.43
-63334.1
-1438.54
-62971.3
-1452.02
-62605.3
-1464.89
-62236.3
-1477.16
-61864.4
-1488.84
-61489.7
-1499.94
-61112.4
-1510.47
-60732.6
-1520.45
-60350.4
-1529.9
-59966
-1538.81
-59579.6
-1547.21
-59191.2
-1555.1
-58800.9
-1562.5
-58408.9
-1569.41
-58015.3
-1575.86
-57620.2
-1581.85
-57223.8
-1587.39
-56826.1
-1592.5
-56427.2
-1597.18
-56027.2
-1601.44
-55626.3
-1605.31
-55224.6
-1608.78
-54822
-1611.87
-54418.8
-1614.59
-54015
-1616.95
-53610.7
-1618.96
-53206
-1620.62
-52801
-1621.96
-52395.7
-1622.98
-51990.3
-1623.68
-51584.7
-1624.08
-51179.2
-1624.19
-50773.6
-1624.01
-50368.2
-1623.56
-49963
-1622.85
-49558
-1621.87
-49153.3
-1620.65
-48749
-1619.19
-48345.2
-1617.49
-47941.8
-1615.57
-47538.9
-1613.44
-47136.6
-1611.09
-46735
-1608.55
-46334
-1605.81
-45933.8
-1602.89
-45534.3
-1599.78
-45135.7
-1596.5
-44738
-1593.06
-44341.1
-1589.46
-43945.2
-1585.71
-43550.2
-1581.81
-43156.2
-1577.77
-42763.3
-1573.6
-42371.5
-1569.3
-41980.8
-1564.88
-41591.2
-1560.34
-41202.8
-1555.69
-40815.5
-1550.94
-40429.5
-1546.09
-40044.7
-1541.14
-39661.1
-1536.1
-39278.8
-1530.98
-38897.9
-1525.78
-38518.2
-1520.51
-38139.9
-1515.16
-37762.9
-1509.75
-37387.3
-1504.28
-37013.1
-1498.75
-36640.2
-1493.17
-36268.8
-1487.54
-35898.8
-1481.86
-35530.2
-1476.14
-35163
-1470.38
-34797.3
-1464.59
-34433.1
-1458.77
-34070.3
-1452.92
-33708.9
-1447.05
-33349.1
-1441.16
-32990.7
-1435.25
-32633.7
-1429.32
-32278.3
-1423.38
-31924.4
-1417.44
-31571.9
-1411.48
-31220.9
-1405.53
-30871.4
-1399.57
-30523.4
-1393.62
-30176.8
-1387.67
-29831.8
-1381.73
-29488.2
-1375.79
-29146.1
-1369.87
-28805.5
-1363.96
-28466.4
-1358.07
-28128.7
-1352.19
-27792.4
-1346.34
-27457.7
-1340.5
-27124.3
-1334.69
-26792.4
-1328.9
-26462
-1323.15
-26133
-1317.42
-25805.4
-1311.72
-25479.2
-1306.05
-25154.4
-1300.41
-24831
-1294.81
-24509
-1289.25
-24188.4
-1283.72
-23869.1
-1278.24
-23551.2
-1272.79
-23234.7
-1267.38
-22919.5
-1262.02
-22605.6
-1256.7
-22293
-1251.43
-21981.7
-1246.2
-21671.7
-1241.02
-21363
-1235.89
-21055.6
-1230.8
-20749.4
-1225.77
-20444.5
-1220.79
-20140.8
-1215.86
-19838.3
-1210.98
-19537
-1206.15
-19236.9
-1201.38
-18938
-1196.66
-18640.2
-1192
-18343.6
-1187.4
-18048.1
-1182.85
-17753.8
-1178.36
-17460.5
-1173.93
-17168.3
-1169.56
-16877.2
-1165.24
-16587.2
-1160.99
-16298.2
-1156.79
-16010.2
-1152.66
-15723.3
-1148.59
-15437.4
-1144.58
-15152.4
-1140.63
-14868.4
-1136.75
-14585.4
-1132.92
-14303.3
-1129.17
-14022.1
-1125.47
-13741.8
-1121.84
-13462.4
-1118.27
-13183.9
-1114.77
-12906.3
-1111.33
-12629.4
-1107.96
-12353.5
-1104.66
-12078.3
-1101.41
-11803.9
-1098.24
-11530.3
-1095.13
-11257.4
-1092.09
-10985.3
-1089.12
-10713.9
-1086.21
-10443.2
-1083.37
-10173.2
-1080.6
-9903.9
-1077.89
-9635.24
-1075.25
-9367.22
-1072.68
-9099.83
-1070.18
-8833.04
-1067.75
-8566.84
-1065.38
-8301.21
-1063.08
-8036.14
-1060.85
-7771.61
-1058.69
-7507.6
-1056.6
-7244.09
-1054.58
-6981.07
-1052.63
-6718.52
-1050.74
-6456.42
-1048.93
-6194.76
-1047.18
-5933.51
-1045.51
-5672.67
-1043.9
-5412.21
-1042.36
-5152.11
-1040.89
-4892.37
-1039.49
-4632.95
-1038.17
-4373.85
-1036.91
-4115.05
-1035.72
-3856.53
-1034.6
-3598.26
-1033.55
-3340.24
-1032.57
-3082.45
-1031.66
-2824.87
-1030.82
-2567.47
-1030.06
-2310.25
-1029.37
-2053.19
-1028.74
-1796.26
-1028.2
-1539.45
-1027.73
-1282.74
-1027.33
-1026.11
-1027.01
-769.536
-1026.76
-513.008
-1026.59
-256.502
-1026.5
-1026.47
-2212.62
11308.2
-4416.88
11258.8
-6604.2
11151.8
-8766.36
10992.1
-10895.7
10786.4
-12985.6
10542.5
-15030.3
10269
-17025.2
9974.69
-18967.1
9667.8
-20853.4
9355.71
-22683
9044.66
-24455.4
8739.66
-26171.1
8444.52
-27831.2
8161.95
-29437.3
7893.63
-30991.5
7640.38
-32496
7402.34
-33953.4
7179.06
-35366.1
6969.73
-36736.7
6773.29
-38067.5
6588.51
-39360.8
6414.1
-40618.5
6248.8
-41842.7
6091.35
-43034.8
5940.63
-44196.4
5795.57
-45328.6
5655.27
-46432.5
5518.91
-47509
5385.84
-48558.9
5255.49
-49582.7
5127.41
-50580.9
5001.26
-51554
4876.76
-52502.3
4753.71
-53426.2
4631.96
-54325.9
4511.4
-55201.7
4391.97
-56053.8
4273.61
-56882.5
4156.28
-57688
4039.96
-58470.4
3924.63
-59230
3810.29
-59967
3696.93
-60681.5
3584.55
-61373.8
3473.15
-62044
3362.75
-62692.4
3253.33
-63319.2
3144.91
-63924.5
3037.5
-64508.5
2931.1
-65071.6
2825.72
-65613.7
2721.37
-66135.3
2618.06
-66636.4
2515.8
-67117.4
2414.6
-67578.3
2314.47
-68019.5
2215.42
-68441.1
2117.47
-68843.3
2020.61
-69226.5
1924.87
-69590.7
1830.25
-69936.3
1736.77
-70263.4
1644.43
-70572.3
1553.25
-70863.3
1463.24
-71136.5
1374.4
-71392.2
1286.74
-71630.6
1200.28
-71852
1115.02
-72056.6
1030.97
-72244.7
948.146
-72416.5
866.543
-72572.3
786.174
-72712.2
707.044
-72836.6
629.159
-72945.7
552.524
-73039.7
477.144
-73119
403.022
-73183.7
330.163
-73234.1
258.569
-73270.5
188.241
-73293.1
119.182
-73302.1
51.3928
-73297.9
-15.1273
-73280.7
-80.3784
-73250.7
-144.361
-73208.1
-207.078
-73153.4
-268.531
-73086.6
-328.722
-73008
-387.656
-72917.9
-445.337
-72816.6
-501.769
-72704.3
-556.958
-72581.2
-610.909
-72447.6
-663.629
-72303.7
-715.125
-72149.8
-765.404
-71986.1
-814.475
-71812.9
-862.347
-71630.4
-909.027
-71438.8
-954.525
-71238.3
-998.852
-71029.3
-1042.02
-70811.9
-1084.03
-70586.3
-1124.91
-70352.8
-1164.66
-70111.6
-1203.29
-69863
-1240.82
-69607
-1277.26
-69344.1
-1312.62
-69074.3
-1346.91
-68797.9
-1380.15
-68515
-1412.36
-68226
-1443.54
-67930.9
-1473.71
-67630.1
-1502.89
-67323.6
-1531.08
-67011.7
-1558.31
-66694.6
-1584.59
-66372.5
-1609.93
-66045.4
-1634.35
-65713.7
-1657.87
-65377.6
-1680.49
-65037
-1702.24
-64692.4
-1723.12
-64343.7
-1743.17
-63991.2
-1762.38
-63635.1
-1780.78
-63275.5
-1798.38
-62912.5
-1815.2
-62546.3
-1831.26
-62177.1
-1846.56
-61805
-1861.12
-61430.2
-1874.96
-61052.7
-1888.1
-60672.8
-1900.55
-60290.6
-1912.32
-59906.1
-1923.43
-59519.6
-1933.9
-59131.1
-1943.73
-58740.8
-1952.95
-58348.8
-1961.57
-57955.2
-1969.6
-57560.1
-1977.06
-57163.6
-1983.96
-56765.9
-1990.32
-56367.1
-1996.15
-55967.2
-2001.45
-55566.3
-2006.26
-55164.6
-2010.58
-54762.2
-2014.42
-54359.1
-2017.79
-53955.4
-2020.72
-53551.2
-2023.21
-53146.6
-2025.27
-52741.7
-2026.92
-52336.6
-2028.17
-51931.3
-2029.03
-51525.9
-2029.51
-51120.5
-2029.63
-50715.2
-2029.39
-50310
-2028.81
-49904.9
-2027.9
-49500.2
-2026.67
-49095.7
-2025.13
-48691.6
-2023.28
-48288
-2021.15
-47884.8
-2018.74
-47482.2
-2016.05
-47080.2
-2013.11
-46678.8
-2009.91
-46278.1
-2006.48
-45878.2
-2002.81
-45479
-1998.92
-45080.7
-1994.81
-44683.2
-1990.49
-44286.6
-1985.98
-43891
-1981.28
-43496.3
-1976.4
-43102.7
-1971.34
-42710.1
-1966.12
-42318.6
-1960.73
-41928.2
-1955.2
-41538.9
-1949.52
-41150.8
-1943.7
-40763.9
-1937.75
-40378.2
-1931.68
-39993.8
-1925.49
-39610.6
-1919.19
-39228.7
-1912.79
-38848
-1906.28
-38468.7
-1899.68
-38090.8
-1892.99
-37714.2
-1886.23
-37338.9
-1879.38
-36965.1
-1872.46
-36592.6
-1865.48
-36221.6
-1858.44
-35851.9
-1851.34
-35483.7
-1844.19
-35116.9
-1836.99
-34751.6
-1829.75
-34387.7
-1822.47
-34025.3
-1815.15
-33664.4
-1807.81
-33304.9
-1800.44
-32946.9
-1793.05
-32590.4
-1785.64
-32235.3
-1778.22
-31881.8
-1770.78
-31529.7
-1763.34
-31179.1
-1755.9
-30830
-1748.45
-30482.4
-1741.01
-30136.3
-1733.57
-29791.6
-1726.14
-29448.5
-1718.72
-29106.8
-1711.32
-28766.6
-1703.94
-28427.8
-1696.57
-28090.5
-1689.22
-27754.7
-1681.9
-27420.3
-1674.61
-27087.4
-1667.35
-26755.9
-1660.12
-26425.9
-1652.92
-26097.3
-1645.76
-25770.1
-1638.63
-25444.3
-1631.55
-25119.9
-1624.5
-24796.9
-1617.51
-24475.3
-1610.55
-24155.1
-1603.65
-23836.3
-1596.79
-23518.8
-1589.98
-23202.6
-1583.23
-22887.8
-1576.52
-22574.3
-1569.88
-22262.2
-1563.29
-21951.3
-1556.75
-21641.7
-1550.28
-21333.4
-1543.87
-21026.4
-1537.51
-20720.6
-1531.22
-20416.1
-1525
-20112.8
-1518.83
-19810.7
-1512.74
-19509.8
-1506.71
-19210.1
-1500.75
-18911.5
-1494.85
-18614.2
-1489.03
-18318
-1483.27
-18022.9
-1477.59
-17728.9
-1471.98
-17436
-1466.44
-17144.3
-1460.98
-16853.6
-1455.59
-16563.9
-1450.27
-16275.3
-1445.03
-15987.8
-1439.87
-15701.2
-1434.78
-15415.7
-1429.77
-15131.1
-1424.84
-14847.5
-1419.98
-14564.8
-1415.21
-14283.1
-1410.51
-14002.3
-1405.89
-13722.4
-1401.36
-13443.4
-1396.9
-13165.3
-1392.52
-12888
-1388.23
-12611.6
-1384.02
-12336
-1379.89
-12061.2
-1375.84
-11787.2
-1371.87
-11514
-1367.99
-11241.5
-1364.19
-10969.7
-1360.47
-10698.7
-1356.84
-10428.4
-1353.29
-10158.8
-1349.82
-9889.87
-1346.44
-9621.58
-1343.15
-9353.94
-1339.94
-9086.92
-1336.81
-8820.51
-1333.77
-8554.68
-1330.81
-8289.43
-1327.94
-8024.73
-1325.16
-7760.57
-1322.46
-7496.93
-1319.85
-7233.8
-1317.32
-6971.15
-1314.88
-6708.97
-1312.53
-6447.24
-1310.26
-6185.95
-1308.08
-5925.08
-1305.98
-5664.6
-1303.98
-5404.51
-1302.06
-5144.78
-1300.22
-4885.41
-1298.47
-4626.36
-1296.81
-4367.63
-1295.24
-4109.19
-1293.75
-3851.04
-1292.36
-3593.14
-1291.05
-3335.49
-1289.82
-3078.06
-1288.69
-2820.84
-1287.64
-2563.82
-1286.68
-2306.96
-1285.82
-2050.27
-1285.04
-1793.7
-1284.36
-1537.26
-1283.77
-1280.91
-1283.27
-1024.65
-1282.87
-768.44
-1282.56
-512.276
-1282.35
-256.135
-1282.23
-1282.2
-2185.49
13492.9
-4363.65
13436.2
-6527.24
13314.6
-8669.18
13133.2
-10782.7
12899
-12861.7
12620.6
-14900.7
12307.1
-16895
11968.1
-18840.9
11612.8
-20735.5
11249.4
-22576.7
10885
-24363.3
10525.4
-26095
10175.3
-27772.1
9838.13
-29395.4
9516.1
-30966.4
9210.56
-32486.9
8922.02
-33959
8650.33
-35384.9
8394.85
-36766.9
8154.59
-38107.4
7928.32
-39408.7
7714.69
-40672.9
7512.29
-41902
7319.74
-43097.8
7135.71
-44261.8
6958.94
-45395.5
6788.33
-46500.2
6622.88
-47576.7
6461.74
-48626
6304.19
-49648.9
6149.64
-50645.9
5997.62
-51617.6
5847.77
-52564.3
5699.79
-53486.4
5553.49
-54384.4
5408.7
-55258.3
5265.32
-56108.6
5123.26
-56935.4
4982.47
-57739
4842.92
-58519.5
4704.57
-59277.2
4567.41
-60012.4
4431.44
-60725
4296.65
-61415.5
4163.03
-62084
4030.61
-62730.6
3899.37
-63355.6
3769.32
-63959.2
3640.49
-64541.5
3512.86
-65102.8
3386.46
-65643.3
3261.3
-66163.2
3137.38
-66662.7
3014.72
-67141.9
2893.33
-67601.2
2773.22
-68040.8
2654.41
-68460.8
2536.91
-68861.4
2420.73
-69243
2305.88
-69605.6
2192.38
-69949.6
2080.25
-70275.2
1969.49
-70582.6
1860.11
-70872
1752.13
-71143.7
1645.57
-71397.9
1540.42
-71634.8
1436.71
-71854.7
1334.44
-72057.9
1233.63
-72244.5
1134.28
-72414.8
1036.4
-72569.1
939.997