/*--------------------------------*- C++ -*----------------------------------*\
| =========                 |                                                 |
| \\      /  F ield         | OpenFOAM: The Open Source CFD Toolbox           |
|  \\    /   O peration     | Version:  2212                                  |
|   \\  /    A nd           | Website:  www.openfoam.com                      |
|    \\/     M anipulation  |                                                 |
\*---------------------------------------------------------------------------*/
FoamFile
{
    version     2.0;
    format      ascii;
    arch        "LSB;label=32;scalar=64";
    class       volScalarField;
    location    "200";
    object      p_rgh;
}
// * * * * * * * * * * * * * * * * * * * * * * * * * * * * * * * * * * * * * //

dimensions      [1 -1 -2 0 0 0 0];

internalField   nonuniform List<scalar> 
204800
(
-1.47495
-1.47358
-1.46996
-1.4648
-1.45768
-1.4489
-1.43826
-1.42592
-1.41178
-1.39593
-1.37831
-1.35899
-1.33793
-1.31515
-1.29064
-1.26438
-1.23635
-1.20652
-1.17486
-1.14134
-1.10589
-1.06848
-1.02904
-0.987502
-0.943801
-0.897862
-0.84961
-0.798964
-0.745845
-0.690172
-0.631864
-0.570842
-0.50703
-0.440354
-0.370743
-0.298131
-0.222456
-0.143661
-0.0616938
0.0234926
0.11194
0.203686
0.298762
0.397196
0.499012
0.604226
0.712855
0.824907
0.940389
1.0593
1.18164
1.30741
1.43658
1.56915
1.7051
1.8444
1.98703
2.13295
2.28213
2.43453
2.59012
2.74883
2.91063
3.07545
3.24325
3.41397
3.58755
3.76392
3.94301
4.12477
4.30911
4.49598
4.68529
4.87698
5.07096
5.26717
5.46552
5.66593
5.86833
6.07263
6.27876
6.48664
6.69617
6.90729
7.1199
7.33394
7.54931
7.76594
7.98375
8.20265
8.42258
8.64344
8.86516
9.08766
9.31087
9.53472
9.75912
9.984
10.2093
10.4349
10.6609
10.887
11.1132
11.3396
11.5659
11.7922
12.0183
12.2443
12.4701
12.6956
12.9207
13.1454
13.3696
13.5934
13.8166
14.0392
14.2612
14.4824
14.703
14.9227
15.1417
15.3597
15.5769
15.7932
16.0085
16.2228
16.436
16.6482
16.8593
17.0693
17.2782
17.4859
17.6924
17.8976
18.1017
18.3044
18.5059
18.7061
18.905
19.1026
19.2988
19.4936
19.6871
19.8792
20.0698
20.2591
20.447
20.6334
20.8184
21.0019
21.184
21.3647
21.5438
21.7216
21.8978
22.0726
22.2458
22.4176
22.588
22.7568
22.9242
23.0901
23.2545
23.4174
23.5788
23.7388
23.8972
24.0542
24.2098
24.3638
24.5164
24.6676
24.8173
24.9655
25.1123
25.2576
25.4015
25.544
25.685
25.8247
25.9629
26.0997
26.2351
26.3691
26.5017
26.6329
26.7628
26.8913
27.0184
27.1441
27.2686
27.3917
27.5134
27.6338
27.7529
27.8707
27.9872
28.1024
28.2164
28.329
28.4404
28.5505
28.6593
28.7669
28.8733
28.9784
29.0823
29.185
29.2865
29.3868
29.4859
29.5838
29.6805
29.776
29.8704
29.9637
30.0558
30.1467
30.2365
30.3252
30.4128
30.4993
30.5846
30.6689
30.7521
30.8342
30.9152
30.9951
31.074
31.1518
31.2286
31.3044
31.3791
31.4527
31.5254
31.597
31.6677
31.7373
31.8059
31.8735
31.9402
32.0058
32.0705
32.1343
32.197
32.2588
32.3197
32.3796
32.4385
32.4966
32.5537
32.6098
32.6651
32.7194
32.7728
32.8253
32.8769
32.9276
32.9775
33.0264
33.0744
33.1216
33.1679
33.2133
33.2578
33.3015
33.3443
33.3863
33.4274
33.4677
33.5071
33.5457
33.5834
33.6203
33.6563
33.6916
33.726
33.7596
33.7923
33.8243
33.8554
33.8857
33.9152
33.9439
33.9718
33.9989
34.0252
34.0507
34.0754
34.0993
34.1225
34.1448
34.1663
34.1871
34.2071
34.2263
34.2447
34.2623
34.2791
34.2952
34.3105
34.3251
34.3388
34.3518
34.364
34.3755
34.3862
34.3961
34.4052
34.4136
34.4212
34.4281
34.4342
34.4395
34.4441
34.4479
34.4509
34.4532
34.4547
34.4555
-1.4343
-1.43293
-1.42986
-1.42542
-1.41933
-1.41181
-1.40267
-1.39204
-1.3798
-1.366
-1.35057
-1.33351
-1.31477
-1.29433
-1.27213
-1.24815
-1.22234
-1.19464
-1.165
-1.13337
-1.09968
-1.06388
-1.02589
-0.985662
-0.94312
-0.898195
-0.850821
-0.800928
-0.748448
-0.693311
-0.635451
-0.5748
-0.511294
-0.44487
-0.375468
-0.30303
-0.227503
-0.148836
-0.0669846
0.018095
0.10644
0.198086
0.29306
0.39139
0.493096
0.598196
0.706704
0.818629
0.933976
1.05275
1.17494
1.30055
1.42956
1.56195
1.69772
1.83684
1.97927
2.12499
2.27397
2.42615
2.58151
2.74
2.90156
3.06614
3.23369
3.40416
3.57747
3.75357
3.93239
4.11387
4.29793
4.48451
4.67353
4.86491
5.05859
5.25448
5.45251
5.65261
5.85468
6.05865
6.26445
6.47198
6.68117
6.89194
7.10421
7.31789
7.53291
7.74918
7.96662
8.18516
8.40471
8.62519
8.84654
9.06866
9.2915
9.51496
9.73897
9.96347
10.1884
10.4136
10.6392
10.8649
11.0907
11.3167
11.5426
11.7685
11.9943
12.2199
12.4452
12.6703
12.895
13.1193
13.3432
13.5665
13.7893
14.0115
14.2331
14.454
14.6741
14.8934
15.112
15.3297
15.5465
15.7623
15.9772
16.1911
16.404
16.6158
16.8265
17.0361
17.2446
17.4519
17.658
17.8629
18.0665
18.2689
18.47
18.6699
18.8684
19.0655
19.2614
19.4558
19.649
19.8407
20.031
20.2199
20.4074
20.5935
20.7781
20.9613
21.143
21.3233
21.5022
21.6795
21.8554
22.0299
22.2028
22.3743
22.5443
22.7128
22.8798
23.0454
23.2095
23.3721
23.5332
23.6928
23.851
24.0077
24.1629
24.3167
24.469
24.6199
24.7692
24.9172
25.0637
25.2087
25.3524
25.4945
25.6353
25.7747
25.9126
26.0491
26.1843
26.318
26.4503
26.5813
26.7109
26.8391
26.966
27.0915
27.2157
27.3385
27.46
27.5802
27.6991
27.8167
27.9329
28.0479
28.1616
28.274
28.3852
28.495
28.6037
28.7111
28.8172
28.9221
29.0258
29.1283
29.2296
29.3297
29.4286
29.5263
29.6228
29.7182
29.8124
29.9054
29.9973
30.0881
30.1777
30.2662
30.3536
30.4399
30.5251
30.6092
30.6922
30.7741
30.855
30.9348
31.0135
31.0912
31.1678
31.2434
31.3179
31.3915
31.464
31.5355
31.6059
31.6754
31.7439
31.8114
31.8779
31.9435
32.008
32.0716
32.1342
32.1959
32.2566
32.3164
32.3753
32.4332
32.4901
32.5462
32.6013
32.6556
32.7089
32.7613
32.8128
32.8634
32.9131
32.9619
33.0099
33.0569
33.1031
33.1484
33.1929
33.2365
33.2792
33.3211
33.3621
33.4023
33.4416
33.4801
33.5178
33.5546
33.5906
33.6258
33.6601
33.6936
33.7263
33.7582
33.7893
33.8195
33.849
33.8776
33.9054
33.9325
33.9587
33.9842
34.0088
34.0327
34.0558
34.078
34.0995
34.1202
34.1402
34.1593
34.1777
34.1953
34.2121
34.2282
34.2434
34.2579
34.2717
34.2846
34.2968
34.3082
34.3189
34.3288
34.3379
34.3463
34.3539
34.3607
34.3668
34.3721
34.3767
34.3805
34.3835
34.3858
34.3873
34.3881
-1.44778
-1.44642
-1.44338
-1.43897
-1.43293
-1.42546
-1.41638
-1.40581
-1.39364
-1.3799
-1.36453
-1.34753
-1.32884
-1.30844
-1.28628
-1.26232
-1.23651
-1.20881
-1.17914
-1.14747
-1.11372
-1.07784
-1.03976
-0.999421
-0.956752
-0.911688
-0.86416
-0.814103
-0.761448
-0.706128
-0.648078
-0.587232
-0.523528
-0.456903
-0.387299
-0.31466
-0.238933
-0.160069
-0.0780222
0.00724866
0.0957814
0.18761
0.282763
0.381266
0.483142
0.588408
0.697077
0.809158
0.924658
1.04358
1.16592
1.29166
1.42081
1.55334
1.68924
1.82849
1.97105
2.11689
2.26598
2.41829
2.57376
2.73236
2.89403
3.05872
3.22637
3.39694
3.57035
3.74655
3.92547
4.10703
4.29119
4.47785
4.66695
4.85842
5.05218
5.24815
5.44626
5.64642
5.84857
6.05261
6.25847
6.46607
6.67532
6.88615
7.09848
7.31221
7.52728
7.7436
7.96109
8.17967
8.39927
8.6198
8.84118
9.06334
9.28621
9.5097
9.73375
9.95828
10.1832
10.4085
10.634
10.8598
11.0857
11.3116
11.5376
11.7634
11.9892
12.2148
12.4402
12.6652
12.89
13.1143
13.3381
13.5615
13.7843
14.0065
14.228
14.4489
14.669
14.8883
15.1069
15.3245
15.5413
15.7571
15.972
16.1859
16.3987
16.6105
16.8212
17.0308
17.2392
17.4465
17.6525
17.8574
18.061
18.2634
18.4644
18.6642
18.8627
19.0598
19.2556
19.4501
19.6431
19.8348
20.0251
20.2139
20.4014
20.5874
20.772
20.9551
21.1368
21.3171
21.4959
21.6732
21.849
22.0234
22.1963
22.3677
22.5377
22.7062
22.8731
23.0386
23.2027
23.3652
23.5263
23.6859
23.844
24.0006
24.1558
24.3095
24.4618
24.6126
24.7619
24.9098
25.0562
25.2012
25.3448
25.4869
25.6277
25.767
25.9048
26.0413
26.1764
26.3101
26.4424
26.5733
26.7028
26.831
26.9578
27.0833
27.2074
27.3302
27.4517
27.5718
27.6906
27.8081
27.9244
28.0393
28.1529
28.2653
28.3764
28.4862
28.5948
28.7022
28.8083
28.9131
29.0168
29.1192
29.2205
29.3205
29.4193
29.517
29.6135
29.7088
29.803
29.896
29.9878
30.0786
30.1682
30.2566
30.344
30.4302
30.5154
30.5994
30.6824
30.7643
30.8451
30.9248
31.0035
31.0812
31.1578
31.2333
31.3078
31.3813
31.4538
31.5252
31.5957
31.6651
31.7336
31.8011
31.8675
31.933
31.9976
32.0611
32.1237
32.1854
32.2461
32.3058
32.3646
32.4225
32.4795
32.5355
32.5906
32.6448
32.6981
32.7504
32.8019
32.8525
32.9022
32.951
32.9989
33.0459
33.0921
33.1374
33.1818
33.2254
33.2681
33.31
33.351
33.3911
33.4304
33.4689
33.5066
33.5434
33.5793
33.6145
33.6488
33.6823
33.715
33.7468
33.7779
33.8081
33.8376
33.8662
33.894
33.921
33.9473
33.9727
33.9973
34.0212
34.0442
34.0665
34.088
34.1087
34.1286
34.1478
34.1661
34.1837
34.2005
34.2166
34.2318
34.2463
34.26
34.273
34.2852
34.2966
34.3073
34.3171
34.3263
34.3346
34.3422
34.3491
34.3551
34.3605
34.365
34.3688
34.3719
34.3741
34.3756
34.3764
-1.43631
-1.43505
-1.43237
-1.42844
-1.42308
-1.41643
-1.40834
-1.39888
-1.38794
-1.37554
-1.36158
-1.34604
-1.32886
-1.30997
-1.28931
-1.26683
-1.24246
-1.21612
-1.18776
-1.1573
-1.12468
-1.08982
-1.05266
-1.01313
-0.971162
-0.926698
-0.879671
-0.830019
-0.777683
-0.722603
-0.664721
-0.603981
-0.540327
-0.473707
-0.40407
-0.331368
-0.255553
-0.176583
-0.0944186
-0.00902148
0.0796417
0.171601
0.266885
0.365515
0.467512
0.572893
0.68167
0.793852
0.909444
1.02845
1.15086
1.27668
1.40588
1.53847
1.67441
1.81369
1.95627
2.10214
2.25124
2.40355
2.55902
2.7176
2.87926
3.04392
3.21155
3.38207
3.55544
3.73159
3.91044
4.09195
4.27603
4.46262
4.65164
4.84301
5.03668
5.23255
5.43055
5.6306
5.83263
6.03655
6.24228
6.44975
6.65886
6.86955
7.08172
7.29531
7.51022
7.72637
7.9437
8.1621
8.38152
8.60187
8.82307
9.04504
9.26771
9.491
9.71485
9.93917
10.1639
10.389
10.6143
10.8398
11.0655
11.2912
11.5169
11.7426
11.9681
12.1935
12.4186
12.6434
12.8679
13.0919
13.3155
13.5386
13.7612
13.9831
14.2044
14.425
14.6448
14.8639
15.0822
15.2996
15.5161
15.7316
15.9462
16.1598
16.3724
16.5839
16.7943
17.0036
17.2118
17.4188
17.6246
17.8291
18.0325
18.2346
18.4354
18.6349
18.833
19.0299
19.2254
19.4196
19.6124
19.8037
19.9937
20.1823
20.3695
20.5553
20.7396
20.9225
21.1039
21.2838
21.4624
21.6394
21.815
21.9891
22.1617
22.3329
22.5026
22.6708
22.8375
23.0027
23.1665
23.3288
23.4896
23.6489
23.8068
23.9632
24.1181
24.2716
24.4236
24.5741
24.7232
24.8709
25.0171
25.1618
25.3051
25.447
25.5875
25.7266
25.8642
26.0005
26.1353
26.2688
26.4009
26.5315
26.6609
26.7888
26.9154
27.0407
27.1646
27.2872
27.4084
27.5283
27.647
27.7643
27.8803
27.995
28.1084
28.2206
28.3315
28.4412
28.5495
28.6567
28.7626
28.8673
28.9708
29.073
29.1741
29.2739
29.3726
29.4701
29.5664
29.6615
29.7555
29.8484
29.9401
30.0306
30.1201
30.2084
30.2956
30.3817
30.4667
30.5506
30.6334
30.7151
30.7958
30.8754
30.9539
31.0314
31.1079
31.1833
31.2577
31.331
31.4033
31.4747
31.545
31.6143
31.6826
31.75
31.8163
31.8817
31.9461
32.0096
32.072
32.1336
32.1941
32.2538
32.3125
32.3703
32.4271
32.483
32.538
32.5921
32.6453
32.6976
32.7489
32.7994
32.849
32.8977
32.9456
32.9925
33.0386
33.0838
33.1282
33.1716
33.2143
33.2561
33.297
33.3371
33.3763
33.4147
33.4523
33.489
33.5249
33.56
33.5942
33.6277
33.6603
33.6921
33.7231
33.7533
33.7826
33.8112
33.839
33.866
33.8921
33.9175
33.9421
33.9659
33.9889
34.0112
34.0326
34.0533
34.0732
34.0923
34.1106
34.1281
34.1449
34.1609
34.1762
34.1906
34.2043
34.2172
34.2294
34.2408
34.2514
34.2613
34.2704
34.2788
34.2864
34.2932
34.2992
34.3046
34.3091
34.3129
34.3159
34.3182
34.3197
34.3205
-1.46116
-1.4599
-1.45725
-1.45335
-1.44806
-1.44147
-1.43346
-1.42407
-1.41322
-1.40089
-1.38702
-1.37157
-1.35446
-1.33565
-1.31507
-1.29265
-1.26833
-1.24204
-1.21371
-1.18326
-1.15063
-1.11574
-1.07853
-1.03892
-0.996859
-0.952268
-0.905089
-0.85526
-0.802721
-0.747414
-0.689281
-0.62827
-0.564325
-0.497398
-0.427439
-0.354402
-0.278245
-0.198926
-0.116408
-0.0306551
0.0583637
0.150677
0.246312
0.345289
0.447629
0.553346
0.662454
0.77496
0.890871
1.01019
1.13291
1.25902
1.38852
1.52139
1.65762
1.79717
1.94003
2.08616
2.23552
2.38809
2.54381
2.70264
2.86453
3.02943
3.19729
3.36805
3.54164
3.718
3.89707
4.07879
4.26308
4.44986
4.63908
4.83065
5.02451
5.22056
5.41874
5.61897
5.82117
6.02526
6.23116
6.43878
6.64805
6.85889
7.07121
7.28493
7.49998
7.71627
7.93372
8.15225
8.37179
8.59225
8.81356
9.03564
9.25841
9.4818
9.70574
9.93015
10.155
10.3801
10.6055
10.8311
11.0568
11.2826
11.5084
11.7341
11.9597
12.1851
12.4102
12.6351
12.8596
13.0837
13.3073
13.5305
13.753
13.975
14.1963
14.4169
14.6367
14.8558
15.074
15.2914
15.5079
15.7235
15.9381
16.1516
16.3642
16.5757
16.7861
16.9953
17.2035
17.4104
17.6162
17.8207
18.024
18.226
18.4268
18.6262
18.8244
19.0212
19.2166
19.4107
19.6035
19.7948
19.9847
20.1733
20.3604
20.5461
20.7303
20.9131
21.0945
21.2744
21.4528
21.6298
21.8053
21.9793
22.1519
22.323
22.4926
22.6607
22.8273
22.9925
23.1562
23.3184
23.4791
23.6384
23.7962
23.9525
24.1073
24.2607
24.4126
24.5631
24.7121
24.8596
25.0057
25.1504
25.2937
25.4355
25.5759
25.7148
25.8524
25.9886
26.1233
26.2567
26.3887
26.5193
26.6485
26.7764
26.9029
27.0281
27.1519
27.2744
27.3956
27.5154
27.634
27.7512
27.8671
27.9818
28.0951
28.2072
28.318
28.4276
28.5359
28.643
28.7488
28.8534
28.9568
29.059
29.16
29.2597
29.3583
29.4557
29.552
29.6471
29.741
29.8337
29.9254
30.0159
30.1052
30.1935
30.2806
30.3666
30.4515
30.5354
30.6181
30.6998
30.7804
30.8599
30.9384
31.0158
31.0922
31.1676
31.2419
31.3152
31.3875
31.4587
31.529
31.5982
31.6665
31.7338
31.8001
31.8654
31.9298
31.9931
32.0556
32.1171
32.1776
32.2372
32.2958
32.3535
32.4103
32.4662
32.5212
32.5752
32.6283
32.6806
32.7319
32.7823
32.8319
32.8806
32.9284
32.9753
33.0213
33.0665
33.1108
33.1542
33.1968
33.2386
33.2794
33.3195
33.3587
33.3971
33.4346
33.4713
33.5072
33.5422
33.5764
33.6098
33.6424
33.6742
33.7052
33.7353
33.7647
33.7932
33.821
33.8479
33.8741
33.8994
33.924
33.9478
33.9708
33.993
34.0144
34.035
34.0549
34.074
34.0923
34.1098
34.1266
34.1426
34.1578
34.1723
34.186
34.1989
34.211
34.2224
34.233
34.2429
34.252
34.2603
34.2679
34.2747
34.2808
34.2861
34.2906
34.2944
34.2975
34.2997
34.3012
34.302
-1.47007
-1.4689
-1.4665
-1.46293
-1.4581
-1.45206
-1.44472
-1.43608
-1.42606
-1.41463
-1.40171
-1.38725
-1.37117
-1.35341
-1.33387
-1.31249
-1.28919
-1.26388
-1.23649
-1.20693
-1.17513
-1.141
-1.10447
-1.06548
-1.02394
-0.979794
-0.932979
-0.883434
-0.8311
-0.775924
-0.717851
-0.656834
-0.592825
-0.52578
-0.455656
-0.382414
-0.306017
-0.226431
-0.143624
-0.0575658
0.0317703
0.124409
0.220372
0.319678
0.422345
0.528386
0.637811
0.750629
0.866843
0.986454
1.10946
1.23585
1.36562
1.49875
1.63523
1.77502
1.91811
2.06446
2.21405
2.36682
2.52274
2.68176
2.84384
3.00892
3.17694
3.34786
3.5216
3.69811
3.87733
4.05917
4.24358
4.43049
4.61982
4.8115
5.00545
5.20159
5.39986
5.60016
5.80243
6.00659
6.21254
6.42021
6.62953
6.8404
7.05275
7.2665
7.48157
7.69787
7.91533
8.13386
8.35339
8.57384
8.79513
9.01718
9.23992
9.46328
9.68717
9.91153
10.1363
10.3614
10.5867
10.8122
11.0379
11.2636
11.4893
11.7149
11.9404
12.1657
12.3907
12.6155
12.8399
13.0638
13.2873
13.5103
13.7328
13.9546
14.1757
14.3962
14.6159
14.8348
15.0529
15.2701
15.4864
15.7018
15.9162
16.1296
16.342
16.5533
16.7635
16.9726
17.1806
17.3873
17.5929
17.7972
18.0003
18.2022
18.4027
18.602
18.7999
18.9965
19.1917
19.3856
19.5782
19.7693
19.959
20.1473
20.3342
20.5197
20.7037
20.8863
21.0674
21.2471
21.4253
21.6021
21.7774
21.9512
22.1235
22.2944
22.4638
22.6317
22.7981
22.9631
23.1265
23.2885
23.449
23.6081
23.7656
23.9217
24.0764
24.2295
24.3812
24.5315
24.6803
24.8276
24.9735
25.118
25.261
25.4026
25.5428
25.6816
25.8189
25.9549
26.0894
26.2226
26.3544
26.4848
26.6138
26.7415
26.8678
26.9928
27.1165
27.2388
27.3597
27.4794
27.5977
27.7148
27.8305
27.945
28.0581
28.17
28.2807
28.3901
28.4982
28.6051
28.7108
28.8152
28.9184
29.0204
29.1212
29.2209
29.3193
29.4165
29.5126
29.6075
29.7013
29.7939
29.8854
29.9757
30.0649
30.153
30.24
30.3258
30.4106
30.4943
30.5769
30.6584
30.7389
30.8183
30.8966
30.9739
31.0502
31.1254
31.1996
31.2728
31.3449
31.416
31.4862
31.5553
31.6235
31.6906
31.7568
31.822
31.8862
31.9495
32.0118
32.0732
32.1336
32.1931
32.2517
32.3093
32.366
32.4217
32.4766
32.5305
32.5836
32.6357
32.6869
32.7373
32.7868
32.8353
32.883
32.9299
32.9758
33.0209
33.0651
33.1085
33.151
33.1927
33.2335
33.2735
33.3126
33.3509
33.3883
33.425
33.4608
33.4958
33.5299
33.5633
33.5958
33.6275
33.6584
33.6885
33.7178
33.7463
33.774
33.8009
33.827
33.8523
33.8768
33.9006
33.9235
33.9457
33.9671
33.9877
34.0075
34.0266
34.0448
34.0623
34.0791
34.095
34.1102
34.1247
34.1383
34.1512
34.1633
34.1747
34.1853
34.1951
34.2042
34.2126
34.2201
34.2269
34.233
34.2383
34.2428
34.2466
34.2496
34.2519
34.2534
34.2541
-1.50312
-1.50196
-1.4996
-1.49608
-1.49132
-1.48535
-1.4781
-1.46956
-1.45965
-1.44834
-1.43556
-1.42124
-1.40531
-1.3877
-1.36833
-1.34712
-1.32399
-1.29885
-1.27162
-1.24221
-1.21055
-1.17655
-1.14013
-1.10122
-1.05973
-1.01561
-0.968783
-0.919187
-0.866763
-0.811454
-0.753208
-0.691975
-0.627709
-0.560368
-0.489912
-0.416304
-0.339512
-0.259505
-0.176254
-0.0897348
7.62117e-05
0.0931998
0.189655
0.289457
0.392621
0.499158
0.609077
0.722383
0.839081
0.959169
1.08265
1.2095
1.33973
1.47331
1.61022
1.75045
1.89397
2.04074
2.19074
2.34392
2.50024
2.65965
2.82212
2.98758
3.15598
3.32726
3.50137
3.67823
3.85779
4.03998
4.22473
4.41197
4.60163
4.79362
4.98789
5.18434
5.38291
5.58351
5.78607
5.9905
6.19673
6.40468
6.61426
6.82539
7.038
7.25199
7.4673
7.68383
7.90151
8.12027
8.34001
8.56066
8.78215
9.0044
9.22733
9.45086
9.67493
9.89946
10.1244
10.3496
10.5751
10.8008
11.0265
11.2524
11.4782
11.7039
11.9295
12.1549
12.3801
12.6049
12.8294
13.0534
13.277
13.5001
13.7226
13.9444
14.1656
14.3861
14.6059
14.8248
15.0429
15.2602
15.4765
15.6919
15.9064
16.1198
16.3322
16.5435
16.7537
16.9627
17.1706
17.3774
17.5829
17.7872
17.9903
18.1921
18.3926
18.5918
18.7897
18.9863
19.1815
19.3753
19.5678
19.7588
19.9485
20.1367
20.3236
20.509
20.6929
20.8754
21.0565
21.2361
21.4143
21.5909
21.7661
21.9399
22.1121
22.2829
22.4522
22.62
22.7863
22.9512
23.1145
23.2764
23.4368
23.5958
23.7532
23.9092
24.0638
24.2168
24.3684
24.5186
24.6673
24.8145
24.9603
25.1047
25.2476
25.3891
25.5292
25.6678
25.8051
25.9409
26.0754
26.2084
26.3401
26.4704
26.5993
26.7269
26.8531
26.978
27.1015
27.2237
27.3446
27.4641
27.5824
27.6993
27.8149
27.9293
28.0424
28.1542
28.2647
28.374
28.482
28.5888
28.6944
28.7987
28.9018
29.0037
29.1045
29.204
29.3023
29.3994
29.4954
29.5902
29.6839
29.7764
29.8678
29.958
30.0472
30.1352
30.222
30.3078
30.3925
30.4761
30.5586
30.6401
30.7204
30.7998
30.878
30.9552
31.0314
31.1065
31.1806
31.2537
31.3258
31.3968
31.4669
31.536
31.604
31.6711
31.7372
31.8024
31.8665
31.9297
31.992
32.0533
32.1136
32.173
32.2315
32.2891
32.3457
32.4014
32.4562
32.5101
32.563
32.6151
32.6663
32.7166
32.766
32.8145
32.8622
32.9089
32.9548
32.9999
33.044
33.0874
33.1298
33.1714
33.2122
33.2521
33.2912
33.3295
33.3669
33.4035
33.4392
33.4742
33.5083
33.5416
33.5741
33.6057
33.6366
33.6667
33.6959
33.7244
33.7521
33.7789
33.805
33.8303
33.8548
33.8785
33.9014
33.9235
33.9449
33.9655
33.9853
34.0043
34.0226
34.04
34.0568
34.0727
34.0879
34.1023
34.1159
34.1288
34.1409
34.1523
34.1628
34.1727
34.1818
34.1901
34.1976
34.2044
34.2105
34.2157
34.2203
34.224
34.2271
34.2293
34.2308
34.2316
-1.52582
-1.52473
-1.52254
-1.51926
-1.51483
-1.50926
-1.50248
-1.49447
-1.48515
-1.47449
-1.4624
-1.44881
-1.43365
-1.41683
-1.39827
-1.37788
-1.35556
-1.33123
-1.30479
-1.27615
-1.24522
-1.21192
-1.17615
-1.13783
-1.09688
-1.05323
-1.00681
-0.957554
-0.905394
-0.850276
-0.792148
-0.730959
-0.666667
-0.599233
-0.528619
-0.454796
-0.377734
-0.29741
-0.2138
-0.126886
-0.0366508
0.0569213
0.153843
0.254126
0.35778
0.464812
0.575227
0.68903
0.80622
0.926796
1.05075
1.17808
1.30877
1.44281
1.58018
1.72084
1.86479
2.01198
2.16239
2.31597
2.47268
2.63248
2.79532
2.96115
3.12991
3.30154
3.47599
3.65319
3.83307
4.01558
4.20064
4.38818
4.57813
4.77041
4.96495
5.16167
5.3605
5.56136
5.76416
5.96884
6.1753
6.38346
6.59326
6.80459
7.0174
7.23158
7.44707
7.66378
7.88162
8.10054
8.32043
8.54123
8.76285
8.98522
9.20827
9.43191
9.65608
9.88071
10.1057
10.331
10.5566
10.7823
11.0081
11.234
11.4599
11.6856
11.9113
12.1367
12.3619
12.5867
12.8112
13.0352
13.2588
13.4818
13.7043
13.9261
14.1473
14.3677
14.5874
14.8063
15.0244
15.2415
15.4578
15.6731
15.8875
16.1008
16.3131
16.5243
16.7344
16.9433
17.1512
17.3578
17.5632
17.7674
17.9703
18.172
18.3724
18.5714
18.7692
18.9656
19.1606
19.3543
19.5466
19.7375
19.927
20.1151
20.3018
20.487
20.6708
20.8532
21.0341
21.2135
21.3914
21.5679
21.743
21.9165
22.0886
22.2592
22.4283
22.5959
22.7621
22.9267
23.0899
23.2516
23.4118
23.5706
23.7279
23.8837
24.038
24.1909
24.3423
24.4922
24.6407
24.7878
24.9334
25.0776
25.2203
25.3616
25.5015
25.64
25.777
25.9127
26.047
26.1798
26.3113
26.4415
26.5702
26.6976
26.8236
26.9483
27.0717
27.1937
27.3144
27.4337
27.5518
27.6685
27.784
27.8982
28.0111
28.1227
28.2331
28.3422
28.4501
28.5567
28.6621
28.7662
28.8692
28.9709
29.0715
29.1708
29.269
29.366
29.4618
29.5565
29.65
29.7424
29.8336
29.9237
30.0126
30.1005
30.1872
30.2729
30.3574
30.4409
30.5233
30.6046
30.6848
30.764
30.8421
30.9192
30.9952
31.0702
31.1442
31.2172
31.2891
31.36
31.43
31.4989
31.5669
31.6338
31.6998
31.7648
31.8289
31.892
31.9541
32.0153
32.0755
32.1348
32.1932
32.2507
32.3072
32.3628
32.4175
32.4713
32.5241
32.5761
32.6272
32.6774
32.7267
32.7752
32.8227
32.8694
32.9152
32.9602
33.0043
33.0475
33.0899
33.1314
33.1721
33.212
33.251
33.2891
33.3265
33.363
33.3987
33.4336
33.4676
33.5009
33.5333
33.5649
33.5957
33.6257
33.6549
33.6833
33.711
33.7378
33.7638
33.789
33.8135
33.8371
33.86
33.8821
33.9034
33.924
33.9437
33.9627
33.9809
33.9984
34.0151
34.031
34.0461
34.0605
34.0741
34.087
34.0991
34.1104
34.121
34.1308
34.1398
34.1481
34.1557
34.1625
34.1685
34.1738
34.1783
34.1821
34.1851
34.1873
34.1888
34.1896
-1.56448
-1.56341
-1.56126
-1.55803
-1.55368
-1.5482
-1.54153
-1.53364
-1.52447
-1.51397
-1.50206
-1.48868
-1.47373
-1.45716
-1.43885
-1.41873
-1.39671
-1.37268
-1.34655
-1.31823
-1.28762
-1.25463
-1.21917
-1.18114
-1.14046
-1.09706
-1.05085
-1.00177
-0.949736
-0.894698
-0.836595
-0.775377
-0.710996
-0.643414
-0.572594
-0.498506
-0.421125
-0.340429
-0.2564
-0.169023
-0.078286
0.0158205
0.113304
0.214172
0.318428
0.426075
0.537115
0.651546
0.769368
0.890575
1.01516
1.14311
1.27442
1.40907
1.54704
1.68831
1.83284
1.98062
2.1316
2.28574
2.44301
2.60336
2.76674
2.9331
3.10238
3.27453
3.44949
3.62719
3.80757
3.99057
4.17611
4.36412
4.55453
4.74727
4.94226
5.13942
5.33869
5.53997
5.74319
5.94827
6.15514
6.3637
6.57388
6.78559
6.99877
7.21331
7.42915
7.6462
7.86439
8.08363
8.30384
8.52495
8.74687
8.96954
9.19287
9.41679
9.64123
9.86611
10.0914
10.3169
10.5427
10.7687
10.9947
11.2208
11.4468
11.6728
11.8986
12.1242
12.3495
12.5745
12.7991
13.0233
13.247
13.4702
13.6928
13.9147
14.136
14.3565
14.5763
14.7953
15.0134
15.2307
15.447
15.6624
15.8767
16.0901
16.3024
16.5136
16.7238
16.9327
17.1406
17.3472
17.5526
17.7568
17.9597
18.1614
18.3617
18.5608
18.7585
18.9549
19.1499
19.3435
19.5358
19.7266
19.9161
20.1041
20.2907
20.4759
20.6596
20.8419
21.0227
21.202
21.3799
21.5563
21.7313
21.9047
22.0767
22.2472
22.4162
22.5838
22.7498
22.9144
23.0774
23.239
23.3992
23.5578
23.715
23.8707
24.0249
24.1776
24.3289
24.4788
24.6272
24.7741
24.9196
25.0636
25.2063
25.3474
25.4872
25.6256
25.7625
25.8981
26.0322
26.165
26.2963
26.4263
26.5549
26.6822
26.8081
26.9327
27.0559
27.1778
27.2983
27.4176
27.5355
27.6522
27.7675
27.8816
27.9943
28.1059
28.2161
28.3251
28.4328
28.5393
28.6446
28.7487
28.8515
28.9531
29.0536
29.1528
29.2509
29.3477
29.4434
29.538
29.6314
29.7236
29.8147
29.9047
29.9936
30.0813
30.168
30.2535
30.3379
30.4213
30.5036
30.5848
30.6649
30.744
30.822
30.899
30.9749
31.0498
31.1237
31.1966
31.2684
31.3392
31.4091
31.4779
31.5458
31.6127
31.6786
31.7435
31.8075
31.8705
31.9325
31.9936
32.0538
32.113
32.1713
32.2287
32.2851
32.3406
32.3953
32.449
32.5018
32.5537
32.6047
32.6548
32.7041
32.7524
32.7999
32.8465
32.8923
32.9372
32.9812
33.0244
33.0667
33.1082
33.1488
33.1886
33.2275
33.2657
33.303
33.3394
33.3751
33.4099
33.4439
33.4771
33.5095
33.541
33.5718
33.6018
33.6309
33.6593
33.6869
33.7136
33.7396
33.7648
33.7892
33.8129
33.8357
33.8578
33.8791
33.8996
33.9193
33.9383
33.9565
33.9739
33.9905
34.0064
34.0215
34.0359
34.0495
34.0623
34.0744
34.0857
34.0963
34.1061
34.1151
34.1234
34.1309
34.1377
34.1437
34.149
34.1535
34.1573
34.1603
34.1625
34.164
34.1648
-1.59633
-1.59531
-1.59329
-1.59024
-1.58613
-1.58094
-1.57463
-1.56714
-1.55842
-1.54842
-1.53705
-1.52424
-1.50991
-1.49398
-1.47635
-1.45693
-1.43561
-1.41231
-1.38692
-1.35933
-1.32944
-1.29716
-1.26239
-1.22503
-1.18499
-1.14218
-1.09651
-1.04792
-0.996324
-0.941656
-0.883854
-0.822864
-0.758637
-0.691132
-0.620311
-0.546147
-0.468615
-0.387697
-0.303379
-0.21565
-0.124505
-0.0299392
0.0680483
0.169457
0.274286
0.382531
0.494188
0.609251
0.727714
0.849568
0.974802
1.1034
1.23536
1.37065
1.50925
1.65114
1.79629
1.94467
2.09625
2.25098
2.40883
2.56975
2.73369
2.9006
3.07043
3.24311
3.41859
3.59681
3.77769
3.96118
4.14721
4.3357
4.52658
4.71977
4.91521
5.11282
5.31252
5.51422
5.71786
5.92334
6.1306
6.33955
6.5501
6.76218
6.97571
7.1906
7.40678
7.62416
7.84266
8.06221
8.28272
8.50411
8.72632
8.94925
9.17284
9.39701
9.62168
9.84679
10.0723
10.298
10.524
10.7501
10.9764
11.2026
11.4288
11.655
11.8809
12.1066
12.3321
12.5572
12.7819
13.0062
13.23
13.4532
13.6759
13.8979
14.1192
14.3398
14.5596
14.7786
14.9968
15.214
15.4303
15.6457
15.8601
16.0735
16.2857
16.4969
16.707
16.916
17.1237
17.3303
17.5357
17.7398
17.9427
18.1442
18.3445
18.5435
18.7411
18.9374
19.1323
19.3258
19.518
19.7087
19.8981
20.086
20.2724
20.4575
20.6411
20.8232
21.0039
21.1831
21.3609
21.5371
21.7119
21.8852
22.0571
22.2274
22.3963
22.5636
22.7295
22.8939
23.0568
23.2183
23.3782
23.5367
23.6937
23.8492
24.0033
24.1559
24.307
24.4567
24.6049
24.7516
24.8969
25.0408
25.1833
25.3243
25.4639
25.6021
25.7388
25.8742
26.0082
26.1407
26.2719
26.4017
26.5302
26.6573
26.783
26.9074
27.0304
27.1522
27.2726
27.3916
27.5094
27.6259
27.741
27.8549
27.9675
28.0789
28.1889
28.2978
28.4053
28.5117
28.6168
28.7207
28.8234
28.9248
29.0251
29.1242
29.2221
29.3188
29.4143
29.5087
29.602
29.6941
29.785
29.8749
29.9636
30.0512
30.1377
30.2231
30.3074
30.3906
30.4727
30.5538
30.6338
30.7127
30.7906
30.8674
30.9432
31.018
31.0918
31.1645
31.2362
31.3069
31.3766
31.4454
31.5131
31.5799
31.6456
31.7104
31.7743
31.8372
31.8991
31.9601
32.0202
32.0793
32.1375
32.1947
32.2511
32.3065
32.361
32.4146
32.4673
32.5191
32.5701
32.6201
32.6692
32.7175
32.7649
32.8114
32.8571
32.9019
32.9459
32.9889
33.0312
33.0726
33.1131
33.1529
33.1917
33.2298
33.267
33.3034
33.339
33.3737
33.4077
33.4408
33.4731
33.5046
33.5353
33.5652
33.5943
33.6226
33.6502
33.6769
33.7028
33.728
33.7523
33.7759
33.7987
33.8207
33.842
33.8625
33.8821
33.9011
33.9192
33.9366
33.9532
33.9691
33.9842
33.9985
34.0121
34.0249
34.0369
34.0482
34.0588
34.0685
34.0776
34.0858
34.0934
34.1001
34.1061
34.1114
34.1159
34.1196
34.1226
34.1249
34.1264
34.1271
-1.63869
-1.63769
-1.63571
-1.63271
-1.62869
-1.6236
-1.61741
-1.61006
-1.60151
-1.59169
-1.58054
-1.56797
-1.55391
-1.53827
-1.52096
-1.50189
-1.48095
-1.45805
-1.43308
-1.40593
-1.37651
-1.34471
-1.31041
-1.27354
-1.23397
-1.19163
-1.14642
-1.09825
-1.04704
-0.992721
-0.935219
-0.874473
-0.810429
-0.743039
-0.672263
-0.598071
-0.520436
-0.439339
-0.354768
-0.266715
-0.175178
-0.0801566
0.0183447
0.12032
0.22576
0.334655
0.446995
0.562768
0.681961
0.80456
0.930549
1.05991
1.19263
1.32868
1.46804
1.61069
1.75659
1.90572
2.05803
2.21349
2.37206
2.53369
2.69833
2.86593
3.03644
3.20979
3.38594
3.56481
3.74634
3.93047
4.11713
4.30623
4.49772
4.69152
4.88756
5.08575
5.28602
5.48829
5.69248
5.89851
6.1063
6.31577
6.52684
6.73943
6.95346
7.16883
7.38549
7.60333
7.82229
8.04228
8.26322
8.48504
8.70765
8.93098
9.15496
9.37951
9.60455
9.83002
10.0558
10.2819
10.5082
10.7347
10.9612
11.1878
11.4143
11.6407
11.8669
12.0928
12.3185
12.5439
12.7688
12.9933
13.2173
13.4407
13.6635
13.8857
14.1072
14.3279
14.5479
14.767
14.9853
15.2027
15.4191
15.6346
15.8491
16.0625
16.2749
16.4861
16.6963
16.9053
17.1131
17.3197
17.5251
17.7292
17.9321
18.1337
18.334
18.5329
18.7306
18.9268
19.1217
19.3152
19.5073
19.6981
19.8873
20.0752
20.2616
20.4466
20.6302
20.8122
20.9929
21.172
21.3497
21.5259
21.7006
21.8738
22.0455
22.2158
22.3846
22.5518
22.7176
22.8819
23.0447
23.2061
23.3659
23.5243
23.6812
23.8366
23.9905
24.143
24.294
24.4435
24.5916
24.7382
24.8834
25.0272
25.1695
25.3104
25.4498
25.5879
25.7245
25.8598
25.9936
26.126
26.2571
26.3868
26.5151
26.642
26.7676
26.8919
27.0148
27.1364
27.2566
27.3756
27.4932
27.6095
27.7246
27.8383
27.9508
28.062
28.1719
28.2806
28.3881
28.4943
28.5993
28.703
28.8056
28.9069
29.007
29.106
29.2038
29.3003
29.3958
29.49
29.5832
29.6751
29.766
29.8557
29.9443
30.0317
30.1181
30.2034
30.2875
30.3706
30.4526
30.5336
30.6135
30.6923
30.7701
30.8468
30.9225
30.9972
31.0708
31.1434
31.215
31.2856
31.3552
31.4239
31.4915
31.5582
31.6238
31.6885
31.7523
31.8151
31.8769
31.9378
31.9978
32.0568
32.1149
32.1721
32.2283
32.2837
32.3381
32.3916
32.4442
32.496
32.5468
32.5967
32.6458
32.694
32.7413
32.7878
32.8334
32.8781
32.922
32.965
33.0072
33.0485
33.089
33.1286
33.1675
33.2054
33.2426
33.2789
33.3144
33.3491
33.383
33.4161
33.4484
33.4798
33.5105
33.5403
33.5694
33.5976
33.6251
33.6518
33.6777
33.7028
33.7271
33.7506
33.7734
33.7954
33.8166
33.837
33.8567
33.8756
33.8937
33.9111
33.9277
33.9435
33.9586
33.9729
33.9864
33.9992
34.0112
34.0225
34.033
34.0428
34.0518
34.06
34.0675
34.0743
34.0803
34.0855
34.09
34.0938
34.0968
34.099
34.1005
34.1013
-1.67652
-1.67556
-1.67368
-1.67082
-1.66698
-1.66211
-1.65619
-1.64916
-1.64097
-1.63154
-1.62082
-1.60873
-1.59518
-1.58009
-1.56336
-1.5449
-1.5246
-1.50237
-1.47809
-1.45165
-1.42295
-1.39187
-1.35832
-1.32218
-1.28334
-1.24172
-1.1972
-1.1497
-1.09913
-1.0454
-0.988434
-0.92817
-0.864542
-0.797497
-0.726991
-0.652986
-0.575455
-0.494376
-0.409735
-0.321527
-0.229749
-0.134407
-0.0355097
0.0669318
0.172902
0.282385
0.395361
0.511812
0.631717
0.755056
0.881806
1.01195
1.14545
1.28229
1.42245
1.56589
1.71258
1.86249
2.01558
2.17181
2.33114
2.49352