/*--------------------------------*- C++ -*----------------------------------*\
| =========                 |                                                 |
| \\      /  F ield         | OpenFOAM: The Open Source CFD Toolbox           |
|  \\    /   O peration     | Version:  2212                                  |
|   \\  /    A nd           | Website:  www.openfoam.com                      |
|    \\/     M anipulation  |                                                 |
\*---------------------------------------------------------------------------*/
FoamFile
{
    version     2.0;
    format      ascii;
    arch        "LSB;label=32;scalar=64";
    class       volScalarField;
    location    "200";
    object      p_rgh_0;
}
// * * * * * * * * * * * * * * * * * * * * * * * * * * * * * * * * * * * * * //

dimensions      [1 -1 -2 0 0 0 0];

internalField   nonuniform List<scalar> 
204800
(
-1.45838
-1.45702
-1.45341
-1.44826
-1.44115
-1.43238
-1.42174
-1.40941
-1.39528
-1.37943
-1.36183
-1.34252
-1.32147
-1.29871
-1.27421
-1.24796
-1.21995
-1.19014
-1.15851
-1.12501
-1.08959
-1.05222
-1.01281
-0.971313
-0.927655
-0.881762
-0.833558
-0.782962
-0.729894
-0.674273
-0.616019
-0.555053
-0.491298
-0.424681
-0.355133
-0.282588
-0.206985
-0.128269
-0.0463869
0.0387064
0.127053
0.218691
0.313651
0.411963
0.513649
0.618729
0.727219
0.839128
0.954464
1.07323
1.19542
1.32103
1.45005
1.58247
1.71826
1.8574
1.99987
2.14563
2.29465
2.44688
2.60229
2.76083
2.92244
3.08709
3.2547
3.42523
3.59861
3.77478
3.95368
4.13523
4.31937
4.50603
4.69513
4.88661
5.08038
5.27636
5.4745
5.67469
5.87687
6.08095
6.28685
6.4945
6.70381
6.9147
7.12709
7.3409
7.55605
7.77245
7.99003
8.20871
8.4284
8.64903
8.87052
9.0928
9.31579
9.5394
9.76358
9.98824
10.2133
10.4387
10.6644
10.8903
11.1164
11.3425
11.5686
11.7947
12.0206
12.2464
12.4719
12.6972
12.9221
13.1466
13.3707
13.5942
13.8172
14.0396
14.2614
14.4825
14.7028
14.9224
15.1411
15.359
15.576
15.7921
16.0072
16.2213
16.4344
16.6464
16.8574
17.0672
17.2759
17.4834
17.6897
17.8949
18.0987
18.3014
18.5027
18.7028
18.9015
19.0989
19.295
19.4897
19.683
19.875
20.0655
20.2547
20.4424
20.6287
20.8136
20.997
21.179
21.3596
21.5386
21.7162
21.8924
22.067
22.2402
22.4119
22.5822
22.7509
22.9182
23.084
23.2483
23.4111
23.5725
23.7324
23.8908
24.0477
24.2032
24.3572
24.5097
24.6608
24.8104
24.9586
25.1053
25.2506
25.3944
25.5368
25.6778
25.8174
25.9555
26.0923
26.2276
26.3616
26.4941
26.6253
26.7551
26.8835
27.0106
27.1363
27.2607
27.3837
27.5055
27.6258
27.7449
27.8627
27.9791
28.0943
28.2081
28.3207
28.4321
28.5421
28.6509
28.7585
28.8648
28.9699
29.0738
29.1764
29.2779
29.3781
29.4771
29.575
29.6717
29.7672
29.8616
29.9548
30.0468
30.1377
30.2275
30.3161
30.4037
30.4901
30.5754
30.6596
30.7427
30.8248
30.9058
30.9857
31.0645
31.1423
31.219
31.2947
31.3694
31.443
31.5156
31.5872
31.6578
31.7273
31.7959
31.8635
31.9301
31.9957
32.0603
32.124
32.1867
32.2485
32.3093
32.3691
32.428
32.486
32.543
32.5992
32.6543
32.7086
32.762
32.8144
32.866
32.9167
32.9664
33.0153
33.0633
33.1104
33.1566
33.202
33.2465
33.2901
33.3329
33.3748
33.4159
33.4561
33.4954
33.534
33.5716
33.6085
33.6445
33.6797
33.7141
33.7476
33.7803
33.8122
33.8433
33.8736
33.903
33.9317
33.9596
33.9866
34.0129
34.0383
34.063
34.0869
34.11
34.1322
34.1538
34.1745
34.1944
34.2136
34.232
34.2496
34.2664
34.2824
34.2977
34.3122
34.326
34.3389
34.3511
34.3626
34.3732
34.3831
34.3923
34.4006
34.4082
34.4151
34.4212
34.4265
34.431
34.4348
34.4379
34.4402
34.4417
34.4424
-1.41778
-1.41642
-1.41335
-1.40892
-1.40283
-1.39531
-1.38618
-1.37556
-1.36333
-1.34954
-1.33411
-1.31707
-1.29834
-1.27791
-1.25573
-1.23176
-1.20596
-1.17828
-1.14867
-1.11706
-1.0834
-1.04763
-1.00969
-0.969497
-0.926998
-0.88212
-0.834794
-0.784951
-0.732522
-0.677439
-0.619632
-0.559037
-0.495588
-0.429224
-0.359884
-0.287513
-0.212059
-0.133471
-0.0517046
0.033282
0.121527
0.213064
0.307923
0.40613
0.507707
0.612673
0.721043
0.832825
0.948027
1.06665
1.18869
1.31415
1.443
1.57525
1.71086
1.84982
1.99209
2.13765
2.28646
2.43848
2.59366
2.75197
2.91335
3.07776
3.24512
3.4154
3.58852
3.76442
3.94304
4.12432
4.30817
4.49454
4.68335
4.87452
5.06798
5.26366
5.46148
5.66135
5.8632
6.06695
6.27252
6.47983
6.6888
6.89935
7.11139
7.32484
7.53963
7.75567
7.97289
8.1912
8.41052
8.63078
8.8519
9.0738
9.2964
9.51964
9.74343
9.9677
10.1924
10.4174
10.6427
10.8682
11.0939
11.3196
11.5453
11.771
11.9965
12.2219
12.447
12.6719
12.8964
13.1205
13.3442
13.5673
13.7899
14.0119
14.2333
14.454
14.6739
14.8931
15.1114
15.3289
15.5455
15.7612
15.9759
16.1896
16.4023
16.614
16.8245
17.034
17.2423
17.4494
17.6554
17.8601
18.0636
18.2658
18.4668
18.6665
18.8649
19.0619
19.2576
19.4519
19.6449
19.8365
20.0267
20.2155
20.4029
20.5888
20.7733
20.9564
21.1381
21.3182
21.497
21.6742
21.85
22.0244
22.1972
22.3686
22.5385
22.7069
22.8739
23.0393
23.2033
23.3659
23.5269
23.6865
23.8446
24.0012
24.1563
24.31
24.4623
24.613
24.7624
24.9102
25.0567
25.2017
25.3452
25.4874
25.6281
25.7674
25.9052
26.0417
26.1768
26.3105
26.4428
26.5737
26.7033
26.8314
26.9583
27.0837
27.2079
27.3307
27.4521
27.5723
27.6911
27.8086
27.9248
28.0398
28.1534
28.2658
28.3769
28.4867
28.5953
28.7027
28.8088
28.9136
29.0173
29.1197
29.221
29.321
29.4199
29.5175
29.614
29.7093
29.8035
29.8965
29.9884
30.0791
30.1687
30.2572
30.3445
30.4308
30.5159
30.5999
30.6829
30.7648
30.8456
30.9253
31.004
31.0816
31.1582
31.2338
31.3083
31.3817
31.4542
31.5256
31.5961
31.6655
31.7339
31.8014
31.8678
31.9333
31.9978
32.0614
32.124
32.1856
32.2463
32.306
32.3648
32.4226
32.4796
32.5356
32.5906
32.6448
32.6981
32.7504
32.8019
32.8524
32.9021
32.9508
32.9987
33.0458
33.0919
33.1372
33.1816
33.2251
33.2678
33.3096
33.3506
33.3907
33.43
33.4684
33.5061
33.5428
33.5788
33.6139
33.6482
33.6816
33.7143
33.7461
33.7772
33.8074
33.8368
33.8654
33.8932
33.9202
33.9464
33.9718
33.9964
34.0202
34.0433
34.0655
34.087
34.1077
34.1276
34.1467
34.165
34.1826
34.1994
34.2154
34.2307
34.2451
34.2588
34.2718
34.2839
34.2954
34.306
34.3159
34.325
34.3333
34.3409
34.3478
34.3538
34.3591
34.3637
34.3675
34.3705
34.3728
34.3743
34.3751
-1.43126
-1.42991
-1.42687
-1.42247
-1.41643
-1.40896
-1.39989
-1.38933
-1.37716
-1.36344
-1.34808
-1.33109
-1.31241
-1.29202
-1.26988
-1.24593
-1.22014
-1.19245
-1.16281
-1.13117
-1.09745
-1.0616
-1.02356
-0.983262
-0.940637
-0.895618
-0.84814
-0.798132
-0.745529
-0.690262
-0.632266
-0.571476
-0.507828
-0.441263
-0.371722
-0.29915
-0.223496
-0.14471
-0.062749
0.0224288
0.110861
0.202581
0.297618
0.396
0.497747
0.602878
0.711409
0.823348
0.938703
1.05747
1.17966
1.30526
1.43425
1.56663
1.70238
1.84146
1.98386
2.12954
2.27847
2.43061
2.58591
2.74433
2.90582
3.07033
3.2378
3.40817
3.58139
3.75739
3.93611
4.11748
4.30142
4.48788
4.67677
4.86803
5.06157
5.25733
5.45522
5.65516
5.85709
6.06091
6.26655
6.47392
6.68295
6.89355
7.10565
7.31916
7.534
7.7501
7.96736
8.18572
8.40508
8.62538
8.84654
9.06848
9.29112
9.51438
9.7382
9.96251
10.1872
10.4123
10.6376
10.8631
11.0888
11.3145
11.5402
11.7659
11.9915
12.2169
12.442
12.6669
12.8914
13.1155
13.3391
13.5623
13.7849
14.0069
14.2282
14.4489
14.6688
14.888
15.1063
15.3238
15.5404
15.756
15.9707
16.1844
16.3971
16.6087
16.8192
17.0286
17.2369
17.444
17.6499
17.8546
18.0581
18.2603
18.4612
18.6609
18.8592
19.0562
19.2519
19.4462
19.6391
19.8306
20.0208
20.2095
20.3969
20.5828
20.7672
20.9503
21.1319
21.312
21.4907
21.6679
21.8436
22.0179
22.1907
22.362
22.5319
22.7003
22.8672
23.0326
23.1965
23.359
23.52
23.6795
23.8375
23.9941
24.1492
24.3029
24.455
24.6058
24.755
24.9029
25.0492
25.1942
25.3377
25.4798
25.6204
25.7597
25.8975
26.0339
26.1689
26.3026
26.4348
26.5657
26.6952
26.8233
26.9501
27.0755
27.1996
27.3223
27.4437
27.5638
27.6826
27.8001
27.9163
28.0311
28.1447
28.2571
28.3681
28.4779
28.5865
28.6938
28.7998
28.9046
29.0083
29.1107
29.2118
29.3118
29.4106
29.5083
29.6047
29.7
29.7941
29.8871
29.9789
30.0696
30.1591
30.2475
30.3349
30.4211
30.5062
30.5902
30.6731
30.7549
30.8357
30.9154
30.9941
31.0716
31.1482
31.2237
31.2982
31.3716
31.444
31.5154
31.5858
31.6552
31.7236
31.791
31.8575
31.9229
31.9874
32.0509
32.1134
32.175
32.2357
32.2954
32.3541
32.412
32.4689
32.5248
32.5799
32.634
32.6873
32.7396
32.791
32.8415
32.8912
32.9399
32.9878
33.0348
33.0809
33.1261
33.1705
33.214
33.2567
33.2985
33.3395
33.3796
33.4188
33.4572
33.4948
33.5316
33.5675
33.6026
33.6369
33.6703
33.703
33.7348
33.7658
33.796
33.8254
33.854
33.8818
33.9087
33.9349
33.9603
33.9849
34.0087
34.0318
34.054
34.0755
34.0961
34.116
34.1351
34.1535
34.171
34.1878
34.2038
34.219
34.2335
34.2472
34.2602
34.2723
34.2837
34.2944
34.3042
34.3133
34.3217
34.3293
34.3361
34.3422
34.3475
34.352
34.3558
34.3588
34.3611
34.3626
34.3634
-1.4198
-1.41854
-1.41587
-1.41194
-1.40659
-1.39994
-1.39186
-1.38241
-1.37148
-1.35908
-1.34513
-1.32961
-1.31243
-1.29355
-1.27291
-1.25045
-1.22609
-1.19978
-1.17144
-1.14101
-1.10842
-1.07359
-1.03647
-0.99698
-0.95506
-0.910642
-0.863664
-0.814063
-0.761779
-0.706752
-0.648924
-0.58824
-0.524643
-0.458083
-0.388509
-0.315874
-0.240132
-0.161241
-0.0791621
0.00614183
0.0947042
0.186555
0.281723
0.380231
0.4821
0.587347
0.695985
0.808025
0.923473
1.04233
1.16459
1.29026
1.41931
1.55174
1.68753
1.82665
1.96908
2.11478
2.26372
2.41586
2.57116
2.72957
2.89104
3.05552
3.22296
3.3933
3.56647
3.74242
3.92108
4.10238
4.28626
4.47264
4.66145
4.85261
5.04606
5.24172
5.4395
5.63934
5.84114
6.04484
6.25035
6.45759
6.66648
6.87694
7.08889
7.30225
7.51693
7.73286
7.94996
8.16814
8.38733
8.60745
8.82842
9.05017
9.27261
9.49568
9.7193
9.9434
10.1679
10.3927
10.6178
10.8431
11.0686
11.2941
11.5196
11.745
11.9704
12.1955
12.4204
12.645
12.8693
13.0931
13.3165
13.5394
13.7618
13.9835
14.2046
14.425
14.6447
14.8635
15.0816
15.2988
15.5151
15.7305
15.9449
16.1584
16.3708
16.5821
16.7924
17.0015
17.2095
17.4163
17.622
17.8264
18.0296
18.2315
18.4321
18.6315
18.8296
19.0263
19.2217
19.4157
19.6083
19.7996
19.9895
20.1779
20.365
20.5506
20.7348
20.9176
21.0989
21.2788
21.4572
21.6341
21.8096
21.9836
22.1561
22.3272
22.4968
22.6649
22.8315
22.9967
23.1604
23.3226
23.4833
23.6426
23.8004
23.9567
24.1115
24.2649
24.4168
24.5673
24.7163
24.8639
25.0101
25.1548
25.298
25.4399
25.5803
25.7193
25.8569
25.9931
26.1279
26.2613
26.3933
26.524
26.6532
26.7811
26.9077
27.0329
27.1568
27.2793
27.4005
27.5204
27.639
27.7562
27.8722
27.9869
28.1003
28.2124
28.3232
28.4329
28.5412
28.6483
28.7542
28.8588
28.9623
29.0645
29.1655
29.2653
29.3639
29.4614
29.5576
29.6527
29.7467
29.8395
29.9311
30.0217
30.111
30.1993
30.2865
30.3725
30.4575
30.5413
30.6241
30.7058
30.7864
30.866
30.9445
31.0219
31.0983
31.1737
31.248
31.3213
31.3936
31.4649
31.5351
31.6044
31.6727
31.74
31.8063
31.8716
31.936
31.9993
32.0618
32.1233
32.1838
32.2434
32.302
32.3597
32.4165
32.4724
32.5273
32.5814
32.6345
32.6867
32.7381
32.7885
32.838
32.8867
32.9345
32.9814
33.0274
33.0726
33.1169
33.1603
33.2029
33.2446
33.2855
33.3255
33.3647
33.4031
33.4406
33.4773
33.5131
33.5481
33.5823
33.6157
33.6483
33.6801
33.711
33.7412
33.7705
33.799
33.8268
33.8537
33.8798
33.9052
33.9297
33.9535
33.9765
33.9987
34.0201
34.0407
34.0606
34.0796
34.0979
34.1155
34.1322
34.1482
34.1634
34.1778
34.1915
34.2044
34.2166
34.228
34.2386
34.2484
34.2575
34.2659
34.2734
34.2802
34.2863
34.2916
34.2961
34.2999
34.3029
34.3052
34.3067
34.3075
-1.44464
-1.44338
-1.44074
-1.43685
-1.43156
-1.42497
-1.41697
-1.40759
-1.39674
-1.38443
-1.37056
-1.35512
-1.33803
-1.31923
-1.29866
-1.27627
-1.25197
-1.2257
-1.19739
-1.16697
-1.13437
-1.09952
-1.06235
-1.02278
-0.980761
-0.936218
-0.889089
-0.839311
-0.786824
-0.73157
-0.673492
-0.612536
-0.548649
-0.481782
-0.411886
-0.338917
-0.262832
-0.183593
-0.10116
-0.015501
0.0734167
0.165622
0.26114
0.359995
0.462206
0.56779
0.67676
0.789125
0.904891
1.02406
1.14663
1.27259
1.40194
1.53466
1.67073
1.81013
1.95282
2.09879
2.24799
2.40039
2.55594
2.71459
2.87631
3.04103
3.2087
3.37927
3.55267
3.72883
3.90771
4.08922
4.2733
4.45988
4.64889
4.84025
5.03389
5.22973
5.4277
5.62771
5.82968
6.03355
6.23922
6.44663
6.65567
6.86628
7.07838
7.29188
7.5067
7.72276
7.93998
8.15829
8.3776
8.59783
8.81892
9.04077
9.26332
9.48648
9.71019
9.93438
10.159
10.3839
10.6091
10.8344
11.0599
11.2855
11.5111
11.7366
11.9619
12.1871
12.4121
12.6367
12.861
13.0849
13.3083
13.5313
13.7536
13.9754
14.1965
14.4169
14.6365
14.8554
15.0735
15.2907
15.507
15.7224
15.9368
16.1502
16.3626
16.5739
16.7841
16.9932
17.2012
17.408
17.6136
17.8179
18.0211
18.223
18.4236
18.6229
18.8209
19.0176
19.2129
19.4069
19.5994
19.7907
19.9805
20.1689
20.3559
20.5414
20.7256
20.9083
21.0895
21.2693
21.4476
21.6245
21.7999
21.9738
22.1463
22.3173
22.4868
22.6548
22.8214
22.9865
23.1501
23.3122
23.4728
23.632
23.7897
23.9459
24.1007
24.254
24.4059
24.5563
24.7052
24.8527
24.9988
25.1434
25.2866
25.4283
25.5686
25.7076
25.8451
25.9812
26.1159
26.2492
26.3812
26.5117
26.6409
26.7687
26.8952
27.0203
27.1441
27.2665
27.3877
27.5075
27.626
27.7431
27.859
27.9736
28.0869
28.199
28.3098
28.4193
28.5276
28.6346
28.7404
28.845
28.9483
29.0504
29.1514
29.2511
29.3497
29.447
29.5432
29.6383
29.7321
29.8249
29.9164
30.0069
30.0962
30.1844
30.2715
30.3575
30.4423
30.5261
30.6088
30.6905
30.771
30.8505
30.9289
31.0063
31.0827
31.158
31.2322
31.3055
31.3777
31.4489
31.5191
31.5883
31.6566
31.7238
31.79
31.8553
31.9196
31.983
32.0453
32.1068
32.1672
32.2268
32.2854
32.343
32.3998
32.4556
32.5105
32.5645
32.6176
32.6697
32.721
32.7714
32.8209
32.8695
32.9173
32.9641
33.0101
33.0552
33.0995
33.1429
33.1854
33.2271
33.268
33.308
33.3471
33.3854
33.4229
33.4596
33.4954
33.5304
33.5646
33.5979
33.6305
33.6622
33.6931
33.7232
33.7525
33.781
33.8088
33.8357
33.8618
33.8871
33.9116
33.9354
33.9583
33.9805
34.0019
34.0225
34.0423
34.0614
34.0797
34.0972
34.1139
34.1299
34.1451
34.1595
34.1732
34.1861
34.1982
34.2096
34.2202
34.23
34.2391
34.2474
34.255
34.2618
34.2679
34.2732
34.2777
34.2815
34.2845
34.2868
34.2883
34.289
-1.45354
-1.45237
-1.44997
-1.44641
-1.44159
-1.43555
-1.42821
-1.41958
-1.40957
-1.39815
-1.38524
-1.37079
-1.35473
-1.33697
-1.31746
-1.2961
-1.27281
-1.24753
-1.22016
-1.19064
-1.15886
-1.12477
-1.08829
-1.04933
-1.00784
-0.963746
-0.916982
-0.867488
-0.815208
-0.760085
-0.702067
-0.641107
-0.577155
-0.51017
-0.44011
-0.366936
-0.290613
-0.211107
-0.128386
-0.0424216
0.0468131
0.139343
0.23519
0.334374
0.436912
0.542819
0.652107
0.764783
0.880853
1.00032
1.12317
1.24942
1.37903
1.51201
1.64833
1.78797
1.9309
2.07709
2.22651
2.37912
2.53486
2.69371
2.85561
3.02051
3.18835
3.35908
3.53263
3.70894
3.88796
4.0696
4.25381
4.44051
4.62963
4.82109
5.01483
5.21076
5.40881
5.6089
5.81094
6.01487
6.22061
6.42806
6.63715
6.8478
7.05992
7.27345
7.48829
7.70436
7.92159
8.1399
8.3592
8.57942
8.80049
9.02231
9.24483
9.46796
9.69163
9.91576
10.1403
10.3652
10.5903
10.8156
11.041
11.2665
11.492
11.7174
11.9426
12.1677
12.3926
12.6171
12.8413
13.065
13.2883
13.5111
13.7334
13.955
14.1759
14.3962
14.6157
14.8344
15.0523
15.2694
15.4855
15.7007
15.915
16.1282
16.3404
16.5515
16.7616
16.9705
17.1783
17.3849
17.5903
17.7945
17.9974
18.1991
18.3995
18.5986
18.7964
18.9929
19.188
19.3817
19.5741
19.7651
19.9547
20.1429
20.3297
20.5151
20.699
20.8814
21.0625
21.242
21.4202
21.5968
21.772
21.9457
22.118
22.2887
22.458
22.6258
22.7922
22.957
23.1204
23.2823
23.4428
23.6017
23.7592
23.9152
24.0698
24.2229
24.3745
24.5247
24.6734
24.8207
24.9665
25.1109
25.2539
25.3955
25.5356
25.6743
25.8116
25.9475
26.082
26.2151
26.3469
26.4772
26.6062
26.7338
26.8601
26.985
27.1086
27.2309
27.3518
27.4714
27.5897
27.7067
27.8224
27.9368
28.05
28.1618
28.2724
28.3818
28.4899
28.5967
28.7024
28.8067
28.9099
29.0119
29.1127
29.2122
29.3106
29.4078
29.5039
29.5987
29.6924
29.785
29.8764
29.9667
30.0559
30.1439
30.2309
30.3167
30.4014
30.4851
30.5676
30.6491
30.7295
30.8089
30.8872
30.9644
31.0406
31.1158
31.19
31.2631
31.3352
31.4063
31.4763
31.5454
31.6135
31.6806
31.7468
31.8119
31.8761
31.9393
32.0016
32.0629
32.1233
32.1827
32.2412
32.2988
32.3554
32.4111
32.4659
32.5198
32.5728
32.6249
32.6761
32.7264
32.7758
32.8243
32.872
32.9187
32.9646
33.0097
33.0539
33.0972
33.1396
33.1813
33.222
33.2619
33.301
33.3393
33.3767
33.4133
33.449
33.484
33.5181
33.5514
33.5839
33.6155
33.6464
33.6764
33.7057
33.7342
33.7618
33.7887
33.8147
33.84
33.8645
33.8882
33.9111
33.9332
33.9546
33.9752
33.995
34.014
34.0322
34.0497
34.0664
34.0824
34.0975
34.1119
34.1256
34.1384
34.1505
34.1619
34.1725
34.1823
34.1914
34.1997
34.2072
34.214
34.2201
34.2253
34.2299
34.2336
34.2367
34.2389
34.2404
34.2412
-1.48657
-1.48541
-1.48305
-1.47953
-1.47478
-1.46882
-1.46158
-1.45304
-1.44314
-1.43184
-1.41907
-1.40476
-1.38885
-1.37125
-1.3519
-1.33071
-1.3076
-1.28248
-1.25528
-1.22591
-1.19428
-1.16032
-1.12394
-1.08507
-1.04363
-0.999562
-0.952786
-0.903242
-0.850872
-0.795617
-0.737427
-0.67625
-0.612043
-0.544762
-0.47437
-0.400832
-0.324114
-0.244187
-0.161023
-0.0745988
0.0151103
0.108125
0.204463
0.304143
0.407179
0.513582
0.623364
0.736529
0.853084
0.973026
1.09635
1.22306
1.35314
1.48656
1.62333
1.7634
1.90676
2.05337
2.2032
2.35621
2.51236
2.6716
2.83389
2.99917
3.16738
3.33848
3.51239
3.68906
3.86842
4.05041
4.23496
4.42199
4.61143
4.80322
4.99727
5.19351
5.39186
5.59224
5.79458
5.9988
6.2048
6.41253
6.62188
6.83279
7.04517
7.25894
7.47402
7.69032
7.90778
8.12631
8.34582
8.56625
8.78751
9.00954
9.23224
9.45555
9.67939
9.9037
10.1284
10.3534
10.5787
10.8041
11.0297
11.2553
11.4809
11.7064
11.9318
12.157
12.3819
12.6065
12.8308
13.0546
13.278
13.5009
13.7232
13.9448
14.1658
14.3861
14.6057
14.8245
15.0424
15.2595
15.4756
15.6909
15.9051
16.1183
16.3305
16.5417
16.7517
16.9606
17.1684
17.375
17.5803
17.7845
17.9874
18.1891
18.3894
18.5885
18.7862
18.9827
19.1777
19.3714
19.5638
19.7547
19.9442
20.1324
20.3191
20.5043
20.6882
20.8706
21.0515
21.231
21.4091
21.5856
21.7607
21.9344
22.1065
22.2772
22.4464
22.6141
22.7804
22.9451
23.1084
23.2702
23.4306
23.5894
23.7468
23.9027
24.0572
24.2102
24.3617
24.5118
24.6604
24.8076
24.9533
25.0976
25.2405
25.3819
25.5219
25.6606
25.7978
25.9335
26.0679
26.201
26.3326
26.4628
26.5917
26.7192
26.8454
26.9702
27.0937
27.2159
27.3367
27.4562
27.5744
27.6913
27.8069
27.9212
28.0342
28.146
28.2565
28.3657
28.4737
28.5804
28.686
28.7903
28.8933
28.9952
29.0959
29.1954
29.2936
29.3907
29.4867
29.5815
29.6751
29.7676
29.8589
29.9491
30.0382
30.1261
30.213
30.2987
30.3833
30.4669
30.5494
30.6308
30.7111
30.7904
30.8686
30.9457
31.0219
31.097
31.171
31.244
31.3161
31.3871
31.4571
31.5261
31.5941
31.6612
31.7272
31.7923
31.8564
31.9196
31.9818
32.043
32.1033
32.1627
32.2211
32.2786
32.3352
32.3908
32.4456
32.4994
32.5523
32.6043
32.6555
32.7057
32.755
32.8035
32.8511
32.8978
32.9437
32.9887
33.0328
33.0761
33.1185
33.16
33.2007
33.2406
33.2797
33.3179
33.3552
33.3918
33.4275
33.4624
33.4964
33.5297
33.5621
33.5938
33.6246
33.6546
33.6838
33.7123
33.7399
33.7667
33.7927
33.818
33.8424
33.8661
33.889
33.9111
33.9324
33.953
33.9728
33.9918
34.01
34.0274
34.0441
34.06
34.0752
34.0896
34.1032
34.116
34.1281
34.1395
34.15
34.1599
34.1689
34.1772
34.1848
34.1915
34.1976
34.2028
34.2074
34.2111
34.2141
34.2164
34.2179
34.2187
-1.50924
-1.50815
-1.50596
-1.50268
-1.49826
-1.49269
-1.48592
-1.47792
-1.46861
-1.45796
-1.44588
-1.43231
-1.41716
-1.40036
-1.38181
-1.36144
-1.33914
-1.31484
-1.28843
-1.25983
-1.22894
-1.19567
-1.15994
-1.12167
-1.08077
-1.03717
-0.990805
-0.9416
-0.889495
-0.834433
-0.77636
-0.71523
-0.650997
-0.583624
-0.513077
-0.439323
-0.362337
-0.282094
-0.198573
-0.111754
-0.0216214
0.0718408
0.168646
0.268806
0.372331
0.47923
0.589508
0.70317
0.820218
0.940648
1.06446
1.19164
1.32218
1.45607
1.59328
1.73379
1.87758
2.02461
2.17485
2.32826
2.48481
2.64443
2.80709
2.97274
3.14131
3.31276
3.48701
3.66402
3.8437
4.02601
4.21086
4.3982
4.58794
4.78001
4.97433
5.17084
5.36946
5.57009
5.77268
5.97713
6.18337
6.39131
6.60088
6.812
7.02457
7.23853
7.45379
7.67027
7.8879
8.10658
8.32625
8.54682
8.76821
8.99036
9.21318
9.4366
9.66055
9.88495
10.1097
10.3348
10.5601
10.7857
11.0113
11.2369
11.4626
11.6881
11.9135
12.1387
12.3637
12.5883
12.8126
13.0364
13.2598
13.4826
13.7049
13.9265
14.1475
14.3677
14.5873
14.806
15.0238
15.2408
15.4569
15.6721
15.8862
16.0994
16.3115
16.5225
16.7324
16.9412
17.1489
17.3553
17.5606
17.7646
17.9674
18.1689
18.3692
18.5681
18.7657
18.962
19.1569
19.3504
19.5426
19.7334
19.9228
20.1107
20.2973
20.4824
20.6661
20.8483
21.0291
21.2084
21.3863
21.5627
21.7376
21.911
22.083
22.2535
22.4225
22.5901
22.7561
22.9207
23.0838
23.2454
23.4056
23.5642
23.7214
23.8772
24.0314
24.1842
24.3356
24.4855
24.6339
24.7809
24.9264
25.0705
25.2132
25.3545
25.4943
25.6327
25.7697
25.9053
26.0396
26.1724
26.3038
26.4339
26.5626
26.6899
26.8159
26.9405
27.0638
27.1858
27.3065
27.4258
27.5438
27.6605
27.7759
27.8901
28.0029
28.1145
28.2248
28.3339
28.4417
28.5483
28.6537
28.7578
28.8607
28.9624
29.0629
29.1622
29.2604
29.3573
29.4531
29.5477
29.6412
29.7335
29.8247
29.9147
30.0037
30.0915
30.1782
30.2638
30.3483
30.4317
30.514
30.5953
30.6755
30.7546
30.8327
30.9097
30.9857
31.0607
31.1346
31.2075
31.2794
31.3503
31.4202
31.489
31.5569
31.6239
31.6898
31.7548
31.8188
31.8818
31.9439
32.005
32.0652
32.1245
32.1828
32.2402
32.2967
32.3522
32.4069
32.4606
32.5134
32.5654
32.6164
32.6665
32.7158
32.7642
32.8117
32.8583
32.9041
32.949
32.993
33.0362
33.0785
33.12
33.1607
33.2005
33.2394
33.2776
33.3149
33.3513
33.387
33.4218
33.4558
33.489
33.5214
33.553
33.5837
33.6137
33.6429
33.6712
33.6988
33.7256
33.7516
33.7768
33.8012
33.8248
33.8476
33.8697
33.891
33.9115
33.9312
33.9502
33.9684
33.9858
34.0025
34.0184
34.0335
34.0478
34.0614
34.0743
34.0863
34.0976
34.1082
34.118
34.127
34.1353
34.1428
34.1496
34.1556
34.1609
34.1654
34.1692
34.1722
34.1744
34.1759
34.1767
-1.54786
-1.54678
-1.54464
-1.54141
-1.53707
-1.53159
-1.52493
-1.51705
-1.50789
-1.4974
-1.4855
-1.47213
-1.45721
-1.44064
-1.42236
-1.40226
-1.38026
-1.35626
-1.33017
-1.30188
-1.27131
-1.23836
-1.20294
-1.16496
-1.12434
-1.08099
-1.03483
-0.985803
-0.933828
-0.878846
-0.8208
-0.75964
-0.695321
-0.627801
-0.557048
-0.483032
-0.405727
-0.325114
-0.241175
-0.153895
-0.0632617
0.0307339
0.128101
0.228845
0.332972
0.440486
0.551389
0.665681
0.78336
0.904422
1.02886
1.15667
1.28783
1.42233
1.56014
1.70125
1.84563
1.99324
2.14406
2.29804
2.45514
2.61531
2.77851
2.94469
3.11379
3.28575
3.46052
3.63802
3.81821
4.001
4.18633
4.37414
4.56434
4.75687
4.95165
5.1486
5.34764
5.54871
5.75171
5.95657
6.16321
6.37155
6.58151
6.793
7.00595
7.22027
7.43588
7.65271
7.87067
8.08968
8.30966
8.53054
8.75224
8.97468
9.19779
9.42148
9.6457
9.87035
10.0954
10.3207
10.5463
10.772
10.9978
11.2237
11.4495
11.6753
11.9009
12.1263
12.3514
12.5762
12.8006
13.0246
13.248
13.471
13.6934
13.9151
14.1362
14.3566
14.5761
14.7949
15.0129
15.2299
15.4461
15.6613
15.8755
16.0887
16.3008
16.5119
16.7218
16.9306
17.1383
17.3448
17.55
17.7541
17.9568
18.1583
18.3585
18.5574
18.755
18.9513
19.1461
19.3396
19.5318
19.7225
19.9118
20.0997
20.2862
20.4713
20.6549
20.837
21.0177
21.197
21.3748
21.5511
21.7259
21.8993
22.0711
22.2415
22.4105
22.5779
22.7439
22.9083
23.0713
23.2329
23.3929
23.5515
23.7086
23.8642
24.0183
24.171
24.3222
24.472
24.6203
24.7672
24.9126
25.0566
25.1992
25.3403
25.48
25.6183
25.7552
25.8907
26.0248
26.1575
26.2888
26.4187
26.5473
26.6745
26.8004
26.9249
27.0481
27.1699
27.2905
27.4097
27.5275
27.6441
27.7594
27.8735
27.9862
28.0977
28.2079
28.3168
28.4245
28.531
28.6362
28.7402
28.843
28.9446
29.045
29.1442
29.2422
29.339
29.4347
29.5292
29.6226
29.7148
29.8059
29.8958
29.9846
30.0723
30.1589
30.2444
30.3288
30.4121
30.4943
30.5755
30.6556
30.7346
30.8126
30.8895
30.9654
31.0403
31.1141
31.1869
31.2587
31.3295
31.3993
31.4681
31.5359
31.6027
31.6686
31.7335
31.7974
31.8603
31.9223
31.9834
32.0435
32.1027
32.1609
32.2182
32.2746
32.3301
32.3846
32.4383
32.4911
32.5429
32.5939
32.644
32.6931
32.7415
32.7889
32.8355
32.8812
32.926
32.97
33.0131
33.0554
33.0968
33.1374
33.1771
33.216
33.2541
33.2914
33.3278
33.3634
33.3982
33.4321
33.4653
33.4976
33.5291
33.5598
33.5898
33.6189
33.6472
33.6747
33.7015
33.7274
33.7526
33.777
33.8005
33.8234
33.8454
33.8666
33.8871
33.9068
33.9258
33.9439
33.9613
33.9779
33.9938
34.0089
34.0232
34.0368
34.0496
34.0617
34.073
34.0835
34.0933
34.1023
34.1106
34.1181
34.1249
34.1309
34.1361
34.1406
34.1444
34.1474
34.1497
34.1512
34.1519
-1.57966
-1.57864
-1.57662
-1.57357
-1.56947
-1.56428
-1.55798
-1.5505
-1.54179
-1.5318
-1.52044
-1.50765
-1.49334
-1.47742
-1.45981
-1.44041
-1.41913
-1.39586
-1.3705
-1.34294
-1.3131
-1.28086
-1.24614
-1.20882
-1.16883
-1.12608
-1.08047
-1.03193
-0.980393
-0.925783
-0.86804
-0.80711
-0.742946
-0.675505
-0.604753
-0.530662
-0.453209
-0.372376
-0.288149
-0.200519
-0.109479
-0.0150254
0.0828437
0.184129
0.288828
0.39694
0.50846
0.623384
0.741704
0.863414
0.988502
1.11696
1.24876
1.3839
1.52235
1.66408
1.80908
1.9573
2.10872
2.26328
2.42096
2.58171
2.74547
2.9122
3.08184
3.25433
3.42962
3.60764
3.78833
3.97162
4.15744
4.34572
4.53639
4.72938
4.92461
5.122
5.32148
5.52297
5.72638
5.93165
6.13868
6.34741
6.55774
6.7696
6.9829
7.19757
7.41352
7.63067
7.84895
8.06827
8.28855
8.50972
8.7317
8.9544
9.17777
9.40171
9.62616
9.85104
10.0763
10.3018
10.5276
10.7535
10.9795
11.2056
11.4316
11.6575
11.8832
12.1087
12.3339
12.5588
12.7834
13.0074
13.231
13.454
13.6765
13.8983
14.1194
14.3398
14.5594
14.7783
14.9962
15.2133
15.4295
15.6447
15.8589
16.072
16.2841
16.4952
16.7051
16.9139
17.1215
17.3279
17.5331
17.7371
17.9398
18.1412
18.3413
18.5401
18.7376
18.9338
19.1285
19.322
19.514
19.7046
19.8938
20.0816
20.2679
20.4529
20.6363
20.8184
20.9989
21.178
21.3557
21.5319
21.7065
21.8798
22.0515
22.2217
22.3905
22.5578
22.7236
22.8879
23.0507
23.2121
23.372
23.5304
23.6873
23.8427
23.9967
24.1492
24.3003
24.4499
24.598
24.7447
24.89
25.0338
25.1762
25.3171
25.4567
25.5948
25.7315
25.8668
26.0007
26.1333
26.2644
26.3942
26.5226
26.6496
26.7753
26.8996
27.0226
27.1443
27.2647
27.3837
27.5014
27.6178
27.733
27.8468
27.9594
28.0707
28.1807
28.2895
28.397
28.5033
28.6084
28.7122
28.8149
28.9163
29.0165
29.1156
29.2134
29.3101
29.4056
29.5
29.5932
29.6852
29.7762
29.866
29.9546
30.0422
30.1286
30.214
30.2982
30.3814
30.4635
30.5445
30.6244
30.7033
30.7812
30.858
30.9337
31.0085
31.0822
31.1548
31.2265
31.2972
31.3669
31.4355
31.5032
31.5699
31.6357
31.7004
31.7642
31.8271
31.8889
31.9499
32.0099
32.069
32.1271
32.1843
32.2406
32.296
32.3504
32.404
32.4566
32.5084
32.5593
32.6092
32.6583
32.7066
32.7539
32.8004
32.846
32.8908
32.9347
32.9777
33.0199
33.0612
33.1017
33.1414
33.1802
33.2182
33.2554
33.2918
33.3273
33.362
33.3959
33.429
33.4613
33.4927
33.5234
33.5533
33.5823
33.6106
33.6381
33.6647
33.6906
33.7158
33.7401
33.7636
33.7864
33.8084
33.8296
33.85
33.8697
33.8886
33.9067
33.9241
33.9407
33.9565
33.9716
33.9859
33.9994
34.0122
34.0242
34.0355
34.046
34.0558
34.0648
34.0731
34.0806
34.0873
34.0933
34.0986
34.1031
34.1068
34.1098
34.1121
34.1136
34.1143
-1.62196
-1.62096
-1.61898
-1.61599
-1.61197
-1.60689
-1.6007
-1.59337
-1.58483
-1.57502
-1.56388
-1.55133
-1.53728
-1.52166
-1.50438
-1.48533
-1.46442
-1.44155
-1.41662
-1.38951
-1.36013
-1.32837
-1.29413
-1.2573
-1.21779
-1.1755
-1.13035
-1.08223
-1.03109
-0.976824
-0.919382
-0.858698
-0.794718
-0.727395
-0.656691
-0.582574
-0.50502
-0.42401
-0.339533
-0.251581
-0.16015
-0.0652427
0.0331391
0.134989
0.2403
0.349062
0.461265
0.576898
0.695949
0.818404
0.944248
1.07346
1.20603
1.34194
1.48115
1.62364
1.76938
1.91835
2.0705
2.22579
2.38419
2.54565
2.71011
2.87753
3.04785
3.22102
3.39698
3.57565
3.75699
3.94091
4.12736
4.31627
4.50755
4.70114
4.89696
5.09493
5.29499
5.49704
5.70101
5.90682
6.11439
6.32364
6.53449
6.74685
6.96065
7.17581
7.39223
7.60985
7.82858
8.04834
8.26906
8.49065
8.71304
8.93615
9.1599
9.38422
9.60904
9.83428
10.0599
10.2858
10.5118
10.7381
10.9644
11.1907
11.417
11.6432
11.8692
12.0949
12.3204
12.5455
12.7703
12.9945
13.2183
13.4416
13.6642
13.8862
14.1074
14.328
14.5478
14.7667
14.9848
15.202
15.4182
15.6335
15.8478
16.0611
16.2733
16.4844
16.6944
16.9032
17.1108
17.3173
17.5225
17.7265
17.9292
18.1307
18.3308
18.5296
18.7271
18.9232
19.118
19.3114
19.5033
19.6939
19.8831
20.0708
20.2571
20.442
20.6254
20.8074
20.9879
21.1669
21.3445
21.5206
21.6952
21.8683
22.04
22.2101
22.3788
22.546
22.7117
22.8759
23.0386
23.1999
23.3596
23.5179
23.6747
23.8301
23.9839
24.1363
24.2873
24.4367
24.5848
24.7313
24.8765
25.0202
25.1624
25.3032
25.4426
25.5806
25.7172
25.8524
25.9862
26.1186
26.2496
26.3792
26.5075
26.6344
26.7599
26.8841
27.007
27.1285
27.2487
27.3676
27.4852
27.6015
27.7165
27.8302
27.9426
28.0538
28.1637
28.2724
28.3798
28.4859
28.5909
28.6946
28.7971
28.8984
28.9985
29.0974
29.1951
29.2917
29.3871
29.4813
29.5744
29.6663
29.7571
29.8468
29.9353
30.0227
30.1091
30.1943
30.2784
30.3615
30.4434
30.5243
30.6042
30.6829
30.7607
30.8373
30.913
30.9876
31.0612
31.1338
31.2054
31.2759
31.3455
31.414
31.4816
31.5482
31.6139
31.6785
31.7422
31.805
31.8668
31.9276
31.9875
32.0465
32.1045
32.1617
32.2179
32.2731
32.3275
32.381
32.4336
32.4852
32.536
32.5859
32.6349
32.6831
32.7304
32.7768
32.8223
32.867
32.9108
32.9538
32.9959
33.0372
33.0776
33.1172
33.156
33.1939
33.231
33.2673
33.3028
33.3375
33.3713
33.4043
33.4365
33.4679
33.4986
33.5284
33.5574
33.5856
33.613
33.6397
33.6655
33.6906
33.7149
33.7384
33.7611
33.7831
33.8042
33.8247
33.8443
33.8631
33.8812
33.8986
33.9151
33.9309
33.946
33.9603
33.9738
33.9866
33.9986
34.0098
34.0203
34.0301
34.0391
34.0473
34.0548
34.0615
34.0675
34.0728
34.0772
34.081
34.084
34.0862
34.0877
34.0885
-1.65972
-1.65876
-1.65688
-1.65402
-1.65019
-1.64533
-1.63942
-1.6324
-1.62421
-1.6148
-1.6041
-1.59202
-1.57849
-1.56342
-1.54672
-1.52828
-1.50802
-1.48582
-1.46157
-1.43518
-1.40652
-1.37549
-1.34199
-1.3059
-1.26712
-1.22555
-1.18109
-1.13365
-1.08313
-1.02946
-0.972563
-0.912362
-0.8488
-0.781825
-0.711392
-0.637466
-0.560018
-0.479029
-0.394485
-0.30638
-0.214712
-0.119485
-0.0207089
0.0816063
0.187446
0.296794
0.409634
0.525945
0.645708
0.768904
0.895509
1.0255
1.15886
1.29555
1.43556
1.57885
1.72538
1.87513
2.02806
2.18412
2.34328
2.50549
2.67069
2.83884
3.00989
3.18377