/*--------------------------------*- C++ -*----------------------------------*\
| =========                 |                                                 |
| \\      /  F ield         | OpenFOAM: The Open Source CFD Toolbox           |
|  \\    /   O peration     | Version:  2212                                  |
|   \\  /    A nd           | Website:  www.openfoam.com                      |
|    \\/     M anipulation  |                                                 |
\*---------------------------------------------------------------------------*/
FoamFile
{
    version     2.0;
    format      ascii;
    arch        "LSB;label=32;scalar=64";
    class       volScalarField;
    location    "870";
    object      p_rgh;
}
// * * * * * * * * * * * * * * * * * * * * * * * * * * * * * * * * * * * * * //

dimensions      [1 -1 -2 0 0 0 0];

internalField   nonuniform List<scalar> 
204800
(
50.0595
50.0587
50.0565
50.0529
50.0479
50.0412
50.0328
50.0225
50.0104
49.9966
49.981
49.9638
49.945
49.9246
49.9028
49.8796
49.8549
49.8288
49.8014
49.7726
49.7424
49.7109
49.6781
49.644
49.6087
49.572
49.5341
49.4949
49.4544
49.4128
49.3699
49.3258
49.2806
49.2342
49.1867
49.1381
49.0885
49.0377
48.9859
48.9331
48.8793
48.8245
48.7688
48.7121
48.6545
48.5961
48.5367
48.4766
48.4156
48.3539
48.2914
48.2281
48.1642
48.0995
48.0342
47.9682
47.9016
47.8344
47.7666
47.6983
47.6295
47.5601
47.4903
47.4201
47.3495
47.2784
47.207
47.1353
47.0632
46.9909
46.9183
46.8455
46.7725
46.6993
46.6259
46.5525
46.4789
46.4052
46.3315
46.2577
46.184
46.1102
46.0366
45.9629
45.8894
45.816
45.7427
45.6696
45.5967
45.524
45.4515
45.3792
45.3073
45.2356
45.1643
45.0933
45.0226
44.9523
44.8825
44.813
44.744
44.6754
44.6074
44.5398
44.4727
44.4061
44.3401
44.2747
44.2098
44.1456
44.0819
44.0189
43.9565
43.8947
43.8336
43.7732
43.7135
43.6545
43.5962
43.5387
43.4819
43.4258
43.3705
43.316
43.2622
43.2093
43.1571
43.1057
43.0552
43.0055
42.9566
42.9085
42.8613
42.8149
42.7693
42.7247
42.6808
42.6379
42.5958
42.5545
42.5142
42.4747
42.4361
42.3983
42.3615
42.3255
42.2904
42.2562
42.2228
42.1903
42.1587
42.128
42.0982
42.0692
42.0411
42.0138
41.9874
41.9619
41.9373
41.9134
41.8905
41.8683
41.847
41.8266
41.8069
41.7881
41.7701
41.7529
41.7365
41.7209
41.706
41.692
41.6787
41.6662
41.6544
41.6434
41.6331
41.6236
41.6147
41.6066
41.5992
41.5925
41.5865
41.5811
41.5764
41.5724
41.569
41.5662
41.5641
41.5626
41.5617
41.5614
41.5616
41.5625
41.5639
41.5659
41.5684
41.5714
41.575
41.579
41.5836
41.5886
41.5942
41.6002
41.6066
41.6135
41.6208
41.6286
41.6367
41.6453
41.6542
41.6635
41.6732
41.6833
41.6936
41.7043
41.7154
41.7267
41.7383
41.7502
41.7624
41.7749
41.7876
41.8006
41.8138
41.8272
41.8408
41.8546
41.8686
41.8828
41.8972
41.9117
41.9264
41.9412
41.9561
41.9712
41.9863
42.0016
42.0169
42.0323
42.0478
42.0634
42.079
42.0946
42.1103
42.126
42.1417
42.1575
42.1732
42.1889
42.2046
42.2202
42.2359
42.2514
42.2669
42.2824
42.2978
42.3131
42.3283
42.3435
42.3585
42.3734
42.3882
42.4029
42.4175
42.4319
42.4462
42.4603
42.4743
42.4881
42.5017
42.5152
42.5285
42.5416
42.5545
42.5673
42.5798
42.5921
42.6042
42.616
42.6277
42.6391
42.6503
42.6613
42.672
42.6824
42.6926
42.7026
42.7123
42.7217
42.7309
42.7398
42.7484
42.7567
42.7648
42.7726
42.7801
42.7873
42.7942
42.8008
42.8071
42.8131
42.8188
42.8242
42.8293
42.8341
42.8386
42.8427
42.8466
42.8501
42.8534
42.8563
42.8588
42.8611
42.863
42.8647
42.866
42.8669
42.8676
42.8679
49.9767
49.9748
49.971
49.9656
49.9584
49.9497
49.9395
49.9278
49.9146
49.8999
49.8838
49.8662
49.8471
49.8267
49.8048
49.7815
49.7568
49.7307
49.7033
49.6745
49.6444
49.6129
49.5802
49.5461
49.5108
49.4742
49.4363
49.3972
49.3568
49.3152
49.2724
49.2285
49.1833
49.137
49.0896
49.0411
48.9915
48.9408
48.8891
48.8364
48.7827
48.728
48.6723
48.6158
48.5583
48.5
48.4408
48.3807
48.3199
48.2582
48.1958
48.1327
48.0688
48.0043
47.9391
47.8732
47.8067
47.7396
47.672
47.6038
47.5351
47.4659
47.3962
47.3261
47.2556
47.1847
47.1134
47.0418
46.9699
46.8977
46.8253
46.7526
46.6797
46.6066
46.5334
46.4601
46.3866
46.3131
46.2395
46.1659
46.0922
46.0186
45.9451
45.8716
45.7982
45.7249
45.6518
45.5788
45.506
45.4334
45.3611
45.289
45.2171
45.1456
45.0744
45.0035
44.933
44.8629
44.7931
44.7238
44.6549
44.5865
44.5185
44.4511
44.3841
44.3177
44.2518
44.1865
44.1217
44.0576
43.994
43.9311
43.8688
43.8072
43.7462
43.6859
43.6264
43.5675
43.5093
43.4518
43.3951
43.3392
43.284
43.2295
43.1759
43.123
43.071
43.0197
42.9692
42.9196
42.8708
42.8228
42.7757
42.7294
42.6839
42.6393
42.5956
42.5527
42.5107
42.4695
42.4293
42.3898
42.3513
42.3136
42.2769
42.2409
42.2059
42.1717
42.1385
42.106
42.0745
42.0439
42.0141
41.9851
41.9571
41.9299
41.9036
41.8781
41.8535
41.8297
41.8068
41.7847
41.7634
41.743
41.7234
41.7046
41.6866
41.6695
41.6531
41.6375
41.6227
41.6087
41.5954
41.583
41.5712
41.5602
41.55
41.5404
41.5316
41.5235
41.5161
41.5094
41.5034
41.4981
41.4934
41.4894
41.486
41.4832
41.4811
41.4796
41.4787
41.4784
41.4787
41.4795
41.4809
41.4829
41.4854
41.4885
41.492
41.4961
41.5006
41.5057
41.5112
41.5172
41.5236
41.5305
41.5378
41.5456
41.5537
41.5623
41.5712
41.5805
41.5902
41.6002
41.6105
41.6212
41.6322
41.6435
41.6552
41.6671
41.6792
41.6917
41.7044
41.7173
41.7305
41.7439
41.7575
41.7713
41.7852
41.7994
41.8138
41.8282
41.8429
41.8577
41.8726
41.8876
41.9027
41.918
41.9333
41.9487
41.9642
41.9797
41.9953
42.0109
42.0265
42.0422
42.0579
42.0736
42.0893
42.105
42.1206
42.1363
42.1519
42.1674
42.1829
42.1983
42.2137
42.229
42.2442
42.2593
42.2743
42.2892
42.304
42.3186
42.3332
42.3476
42.3618
42.3759
42.3899
42.4037
42.4173
42.4307
42.444
42.4571
42.47
42.4827
42.4952
42.5075
42.5195
42.5314
42.543
42.5544
42.5656
42.5765
42.5872
42.5977
42.6078
42.6178
42.6275
42.6369
42.646
42.6549
42.6635
42.6718
42.6799
42.6876
42.6951
42.7023
42.7092
42.7158
42.7221
42.7281
42.7338
42.7392
42.7443
42.7491
42.7535
42.7577
42.7615
42.7651
42.7683
42.7712
42.7738
42.776
42.7779
42.7796
42.7809
42.7818
42.7825
42.7828
49.9591
49.9573
49.9535
49.948
49.9409
49.9322
49.9219
49.9102
49.897
49.8823
49.8661
49.8485
49.8294
49.8089
49.787
49.7636
49.7389
49.7128
49.6854
49.6566
49.6264
49.595
49.5622
49.5282
49.4928
49.4562
49.4183
49.3792
49.3388
49.2972
49.2544
49.2104
49.1652
49.1189
49.0715
49.023
48.9734
48.9227
48.871
48.8183
48.7646
48.7099
48.6542
48.5977
48.5402
48.4818
48.4226
48.3626
48.3017
48.2401
48.1777
48.1146
48.0507
47.9862
47.9209
47.8551
47.7886
47.7215
47.6539
47.5857
47.517
47.4478
47.3781
47.308
47.2375
47.1666
47.0953
47.0237
46.9518
46.8796
46.8072
46.7345
46.6616
46.5885
46.5153
46.442
46.3685
46.295
46.2214
46.1478
46.0742
46.0006
45.927
45.8535
45.7801
45.7069
45.6337
45.5607
45.4879
45.4154
45.343
45.2709
45.1991
45.1276
45.0564
44.9855
44.915
44.8448
44.7751
44.7058
44.6369
44.5685
44.5005
44.4331
44.3661
44.2997
44.2338
44.1685
44.1038
44.0396
43.9761
43.9132
43.8509
43.7893
43.7283
43.668
43.6084
43.5496
43.4914
43.4339
43.3772
43.3213
43.2661
43.2117
43.158
43.1052
43.0531
43.0019
42.9514
42.9018
42.853
42.805
42.7579
42.7116
42.6662
42.6216
42.5778
42.535
42.4929
42.4518
42.4115
42.3721
42.3336
42.2959
42.2592
42.2232
42.1882
42.1541
42.1208
42.0884
42.0569
42.0262
41.9964
41.9675
41.9395
41.9123
41.886
41.8605
41.8359
41.8121
41.7892
41.7671
41.7459
41.7255
41.7059
41.6871
41.6691
41.652
41.6356
41.62
41.6052
41.5912
41.578
41.5655
41.5538
41.5428
41.5325
41.523
41.5142
41.5061
41.4987
41.492
41.486
41.4807
41.476
41.472
41.4686
41.4659
41.4638
41.4623
41.4614
41.4611
41.4614
41.4622
41.4636
41.4656
41.4681
41.4712
41.4747
41.4788
41.4834
41.4884
41.4939
41.4999
41.5064
41.5133
41.5206
41.5283
41.5365
41.545
41.5539
41.5632
41.5729
41.5829
41.5933
41.604
41.615
41.6263
41.6379
41.6499
41.662
41.6745
41.6872
41.7001
41.7133
41.7267
41.7403
41.7541
41.7681
41.7822
41.7966
41.8111
41.8257
41.8405
41.8554
41.8704
41.8856
41.9008
41.9161
41.9315
41.947
41.9625
41.9781
41.9937
42.0094
42.0251
42.0408
42.0565
42.0722
42.0878
42.1035
42.1191
42.1347
42.1503
42.1658
42.1812
42.1965
42.2118
42.227
42.2421
42.2571
42.272
42.2868
42.3015
42.316
42.3304
42.3447
42.3588
42.3727
42.3865
42.4002
42.4136
42.4269
42.44
42.4529
42.4655
42.478
42.4903
42.5024
42.5143
42.5259
42.5373
42.5485
42.5594
42.5701
42.5805
42.5907
42.6006
42.6103
42.6197
42.6289
42.6378
42.6464
42.6547
42.6627
42.6705
42.678
42.6852
42.692
42.6986
42.7049
42.7109
42.7166
42.722
42.7271
42.7319
42.7364
42.7405
42.7444
42.7479
42.7511
42.754
42.7566
42.7589
42.7608
42.7624
42.7637
42.7647
42.7653
42.7657
49.8845
49.8823
49.8779
49.8716
49.8635
49.8538
49.8426
49.8301
49.8162
49.8009
49.7843
49.7663
49.747
49.7263
49.7042
49.6808
49.656
49.6298
49.6023
49.5735
49.5434
49.5119
49.4791
49.4451
49.4098
49.3732
49.3353
49.2962
49.2558
49.2143
49.1715
49.1276
49.0825
49.0362
48.9888
48.9403
48.8908
48.8402
48.7885
48.7359
48.6822
48.6276
48.572
48.5155
48.4581
48.3998
48.3407
48.2807
48.2199
48.1583
48.096
48.0329
47.9692
47.9047
47.8395
47.7738
47.7074
47.6404
47.5728
47.5047
47.4361
47.3669
47.2974
47.2273
47.1569
47.0861
47.0149
46.9434
46.8716
46.7995
46.7271
46.6545
46.5817
46.5087
46.4356
46.3623
46.289
46.2155
46.142
46.0685
45.995
45.9215
45.848
45.7746
45.7013
45.6281
45.5551
45.4822
45.4095
45.337
45.2648
45.1928
45.121
45.0496
44.9785
44.9077
44.8373
44.7672
44.6976
44.6284
44.5596
44.4912
44.4234
44.356
44.2891
44.2228
44.157
44.0918
44.0271
43.9631
43.8996
43.8368
43.7746
43.7131
43.6522
43.592
43.5325
43.4737
43.4156
43.3582
43.3016
43.2457
43.1906
43.1363
43.0827
43.0299
42.9779
42.9268
42.8764
42.8268
42.7781
42.7302
42.6831
42.6369
42.5915
42.547
42.5033
42.4605
42.4186
42.3775
42.3373
42.2979
42.2595
42.2219
42.1852
42.1493
42.1143
42.0802
42.047
42.0147
41.9832
41.9526
41.9229
41.894
41.866
41.8389
41.8126
41.7872
41.7626
41.7389
41.716
41.694
41.6728
41.6524
41.6328
41.6141
41.5962
41.579
41.5627
41.5472
41.5324
41.5184
41.5052
41.4927
41.481
41.4701
41.4599
41.4504
41.4416
41.4335
41.4262
41.4195
41.4135
41.4082
41.4035
41.3995
41.3962
41.3934
41.3913
41.3899
41.389
41.3887
41.389
41.3899
41.3913
41.3933
41.3958
41.3988
41.4024
41.4065
41.4111
41.4161
41.4217
41.4277
41.4341
41.441
41.4483
41.4561
41.4642
41.4727
41.4817
41.491
41.5006
41.5107
41.521
41.5317
41.5427
41.554
41.5657
41.5776
41.5897
41.6022
41.6149
41.6278
41.641
41.6543
41.6679
41.6817
41.6957
41.7099
41.7242
41.7387
41.7533
41.7681
41.783
41.798
41.8131
41.8284
41.8437
41.8591
41.8745
41.89
41.9056
41.9212
41.9369
41.9525
41.9682
41.9839
41.9996
42.0152
42.0309
42.0465
42.0621
42.0776
42.0931
42.1085
42.1238
42.1391
42.1543
42.1694
42.1844
42.1993
42.214
42.2287
42.2432
42.2576
42.2718
42.2859
42.2999
42.3136
42.3272
42.3407
42.3539
42.367
42.3799
42.3926
42.4051
42.4173
42.4294
42.4412
42.4528
42.4642
42.4754
42.4863
42.497
42.5074
42.5176
42.5275
42.5372
42.5466
42.5557
42.5646
42.5732
42.5815
42.5895
42.5973
42.6048
42.6119
42.6188
42.6254
42.6317
42.6377
42.6434
42.6488
42.6539
42.6587
42.6631
42.6673
42.6711
42.6746
42.6779
42.6808
42.6833
42.6856
42.6875
42.6891
42.6904
42.6914
42.692
42.6924
49.8554
49.8533
49.849
49.8428
49.8348
49.8252
49.8141
49.8015
49.7876
49.7724
49.7557
49.7377
49.7183
49.6976
49.6754
49.6519
49.6271
49.6009
49.5734
49.5445
49.5143
49.4828
49.45
49.416
49.3806
49.344
49.3061
49.2669
49.2266
49.185
49.1422
49.0982
49.0531
49.0068
48.9594
48.911
48.8614
48.8108
48.7591
48.7064
48.6527
48.5981
48.5425
48.486
48.4286
48.3703
48.3111
48.2511
48.1904
48.1288
48.0664
48.0034
47.9396
47.8751
47.8099
47.7442
47.6777
47.6107
47.5432
47.475
47.4064
47.3373
47.2677
47.1977
47.1272
47.0564
46.9852
46.9137
46.8418
46.7697
46.6974
46.6248
46.552
46.479
46.4059
46.3326
46.2592
46.1858
46.1123
46.0388
45.9652
45.8917
45.8183
45.7449
45.6716
45.5984
45.5253
45.4524
45.3797
45.3072
45.235
45.163
45.0912
45.0198
44.9487
44.8779
44.8075
44.7374
44.6678
44.5986
44.5298
44.4614
44.3936
44.3262
44.2594
44.193
44.1272
44.062
43.9974
43.9333
43.8699
43.807
43.7448
43.6833
43.6224
43.5622
43.5027
43.444
43.3859
43.3285
43.2719
43.216
43.1609
43.1066
43.053
43.0003
42.9483
42.8971
42.8468
42.7972
42.7485
42.7006
42.6535
42.6073
42.562
42.5175
42.4738
42.431
42.3891
42.348
42.3078
42.2685
42.23
42.1924
42.1557
42.1199
42.0849
42.0508
42.0176
41.9853
41.9538
41.9232
41.8935
41.8647
41.8367
41.8096
41.7833
41.7579
41.7333
41.7096
41.6868
41.6647
41.6435
41.6232
41.6036
41.5849
41.567
41.5499
41.5336
41.518
41.5033
41.4893
41.4761
41.4637
41.452
41.4411
41.4309
41.4214
41.4126
41.4046
41.3972
41.3906
41.3846
41.3793
41.3746
41.3706
41.3673
41.3646
41.3625
41.361
41.3602
41.3599
41.3602
41.3611
41.3625
41.3645
41.3671
41.3701
41.3737
41.3778
41.3824
41.3874
41.393
41.399
41.4055
41.4124
41.4197
41.4275
41.4356
41.4442
41.4531
41.4624
41.4721
41.4821
41.4925
41.5032
41.5142
41.5255
41.5372
41.5491
41.5613
41.5737
41.5864
41.5993
41.6125
41.6259
41.6395
41.6533
41.6673
41.6815
41.6958
41.7103
41.7249
41.7397
41.7546
41.7697
41.7848
41.8
41.8153
41.8307
41.8462
41.8617
41.8773
41.8929
41.9085
41.9242
41.9399
41.9556
41.9713
41.9869
42.0026
42.0182
42.0338
42.0493
42.0648
42.0802
42.0956
42.1109
42.126
42.1411
42.1561
42.171
42.1858
42.2005
42.215
42.2294
42.2436
42.2577
42.2716
42.2854
42.299
42.3125
42.3257
42.3388
42.3517
42.3644
42.3769
42.3891
42.4012
42.413
42.4247
42.436
42.4472
42.4581
42.4688
42.4792
42.4894
42.4993
42.509
42.5184
42.5276
42.5364
42.545
42.5533
42.5614
42.5691
42.5766
42.5838
42.5907
42.5973
42.6036
42.6095
42.6152
42.6206
42.6257
42.6305
42.635
42.6391
42.643
42.6465
42.6497
42.6526
42.6552
42.6574
42.6594
42.661
42.6623
42.6632
42.6639
42.6642
49.7873
49.785
49.7805
49.774
49.7655
49.7555
49.744
49.7311
49.7167
49.7011
49.6842
49.6659
49.6463
49.6253
49.6031
49.5795
49.5545
49.5282
49.5006
49.4717
49.4415
49.41
49.3771
49.343
49.3077
49.271
49.2331
49.194
49.1536
49.112
49.0693
49.0253
48.9802
48.9339
48.8866
48.8381
48.7885
48.7379
48.6863
48.6336
48.58
48.5254
48.4698
48.4133
48.356
48.2977
48.2386
48.1786
48.1179
48.0563
47.994
47.931
47.8672
47.8028
47.7377
47.6719
47.6056
47.5386
47.4711
47.403
47.3344
47.2653
47.1958
47.1258
47.0554
46.9846
46.9135
46.842
46.7702
46.6982
46.6259
46.5533
46.4806
46.4076
46.3346
46.2613
46.188
46.1146
46.0412
45.9677
45.8942
45.8208
45.7474
45.674
45.6008
45.5277
45.4547
45.3818
45.3092
45.2368
45.1646
45.0926
45.0209
44.9496
44.8785
44.8078
44.7374
44.6674
44.5978
44.5287
44.4599
44.3917
44.3239
44.2565
44.1897
44.1235
44.0577
43.9926
43.928
43.864
43.8006
43.7378
43.6757
43.6142
43.5534
43.4933
43.4338
43.3751
43.3171
43.2598
43.2032
43.1474
43.0923
43.0381
42.9846
42.9318
42.8799
42.8288
42.7785
42.729
42.6803
42.6325
42.5855
42.5393
42.494
42.4496
42.4059
42.3632
42.3213
42.2803
42.2401
42.2009
42.1624
42.1249
42.0882
42.0525
42.0175
41.9835
41.9503
41.9181
41.8866
41.8561
41.8264
41.7976
41.7697
41.7426
41.7164
41.691
41.6665
41.6428
41.62
41.598
41.5769
41.5565
41.537
41.5183
41.5005
41.4834
41.4671
41.4516
41.4369
41.423
41.4098
41.3974
41.3857
41.3748
41.3646
41.3552
41.3465
41.3384
41.3311
41.3245
41.3185
41.3132
41.3086
41.3047
41.3014
41.2987
41.2966
41.2952
41.2943
41.2941
41.2944
41.2953
41.2967
41.2988
41.3013
41.3044
41.308
41.3121
41.3167
41.3218
41.3273
41.3334
41.3398
41.3468
41.3541
41.3619
41.37
41.3786
41.3876
41.3969
41.4066
41.4166
41.427
41.4377
41.4487
41.4601
41.4717
41.4836
41.4958
41.5082
41.5209
41.5339
41.5471
41.5605
41.5741
41.5879
41.6019
41.616
41.6304
41.6449
41.6595
41.6743
41.6892
41.7042
41.7194
41.7346
41.7499
41.7653
41.7808
41.7963
41.8119
41.8275
41.8431
41.8588
41.8745
41.8901
41.9058
41.9215
41.9371
41.9528
41.9683
41.9839
41.9994
42.0148
42.0301
42.0454
42.0606
42.0757
42.0906
42.1055
42.1203
42.1349
42.1495
42.1638
42.1781
42.1922
42.2061
42.2199
42.2335
42.2469
42.2602
42.2733
42.2861
42.2988
42.3113
42.3236
42.3356
42.3475
42.3591
42.3705
42.3816
42.3925
42.4032
42.4136
42.4238
42.4337
42.4434
42.4528
42.4619
42.4708
42.4794
42.4877
42.4957
42.5035
42.5109
42.5181
42.525
42.5316
42.5379
42.5439
42.5496
42.555
42.56
42.5648
42.5693
42.5734
42.5773
42.5808
42.584
42.5869
42.5895
42.5917
42.5937
42.5953
42.5966
42.5975
42.5982
42.5985
49.7507
49.7486
49.7441
49.7377
49.7294
49.7195
49.708
49.6952
49.6809
49.6653
49.6483
49.63
49.6103
49.5893
49.567
49.5433
49.5183
49.492
49.4643
49.4354
49.4051
49.3735
49.3407
49.3065
49.2711
49.2344
49.1965
49.1573
49.1169
49.0753
49.0325
48.9885
48.9433
48.897
48.8496
48.8011
48.7515
48.7009
48.6492
48.5966
48.5429
48.4883
48.4327
48.3762
48.3188
48.2605
48.2013
48.1414
48.0806
48.019
47.9567
47.8937
47.8299
47.7654
47.7003
47.6345
47.5681
47.5011
47.4336
47.3655
47.2969
47.2278
47.1582
47.0882
47.0178
46.947
46.8758
46.8043
46.7325
46.6605
46.5881
46.5156
46.4428
46.3699
46.2968
46.2235
46.1502
46.0768
46.0033
45.9298
45.8564
45.7829
45.7095
45.6361
45.5628
45.4897
45.4167
45.3439
45.2712
45.1988
45.1265
45.0546
44.9829
44.9115
44.8404
44.7697
44.6993
44.6293
44.5597
44.4906
44.4218
44.3535
44.2857
44.2184
44.1516
44.0853
44.0196
43.9544
43.8898
43.8258
43.7624
43.6997
43.6375
43.5761
43.5153
43.4551
43.3957
43.3369
43.2789
43.2216
43.1651
43.1093
43.0542
43
42.9465
42.8937
42.8418
42.7907
42.7404
42.6909
42.6423
42.5944
42.5474
42.5013
42.456
42.4115
42.368
42.3252
42.2833
42.2423
42.2022
42.1629
42.1245
42.087
42.0504
42.0146
41.9797
41.9457
41.9125
41.8802
41.8488
41.8183
41.7887
41.7599
41.7319
41.7049
41.6787
41.6533
41.6288
41.6052
41.5824
41.5604
41.5393
41.519
41.4995
41.4808
41.463
41.4459
41.4296
41.4142
41.3995
41.3856
41.3724
41.36
41.3484
41.3375
41.3274
41.3179
41.3092
41.3012
41.2939
41.2873
41.2814
41.2761
41.2715
41.2676
41.2643
41.2616
41.2596
41.2581
41.2573
41.2571
41.2574
41.2583
41.2598
41.2619
41.2644
41.2675
41.2712
41.2753
41.2799
41.285
41.2906
41.2966
41.3031
41.3101
41.3174
41.3252
41.3334
41.342
41.3509
41.3603
41.37
41.3801
41.3905
41.4012
41.4122
41.4236
41.4352
41.4471
41.4593
41.4718
41.4845
41.4975
41.5107
41.5241
41.5377
41.5515
41.5655
41.5797
41.5941
41.6086
41.6233
41.638
41.653
41.668
41.6831
41.6984
41.7137
41.7291
41.7446
41.7601
41.7757
41.7913
41.807
41.8227
41.8384
41.8541
41.8698
41.8854
41.9011
41.9167
41.9323
41.9478
41.9633
41.9788
41.9941
42.0094
42.0246
42.0397
42.0547
42.0696
42.0844
42.099
42.1135
42.1279
42.1422
42.1563
42.1702
42.184
42.1976
42.211
42.2243
42.2374
42.2503
42.2629
42.2754
42.2877
42.2998
42.3116
42.3232
42.3346
42.3458
42.3567
42.3674
42.3778
42.388
42.3979
42.4076
42.417
42.4261
42.435
42.4436
42.4519
42.4599
42.4677
42.4751
42.4823
42.4892
42.4958
42.5021
42.5081
42.5138
42.5192
42.5243
42.529
42.5335
42.5377
42.5415
42.545
42.5482
42.5511
42.5537
42.556
42.5579
42.5595
42.5608
42.5618
42.5624
42.5627
49.6875
49.6853
49.6808
49.6743
49.6659
49.6558
49.6442
49.6311
49.6167
49.6008
49.5837
49.5652
49.5454
49.5242
49.5017
49.478
49.4528
49.4264
49.3987
49.3696
49.3393
49.3077
49.2748
49.2406
49.2051
49.1684
49.1304
49.0912
49.0508
49.0092
48.9663
48.9223
48.8772
48.8309
48.7834
48.7349
48.6854
48.6347
48.583
48.5304
48.4767
48.4221
48.3665
48.31
48.2526
48.1943
48.1351
48.0752
48.0144
47.9529
47.8906
47.8275
47.7637
47.6993
47.6342
47.5684
47.502
47.435
47.3675
47.2994
47.2308
47.1617
47.0922
47.0222
46.9518
46.881
46.8099
46.7384
46.6666
46.5945
46.5222
46.4497
46.3769
46.304
46.2309
46.1577
46.0844
46.011
45.9376
45.8641
45.7906
45.7172
45.6438
45.5705
45.4972
45.4241
45.3511
45.2783
45.2057
45.1333
45.0611
44.9891
44.9175
44.8461
44.7751
44.7044
44.634
44.5641
44.4945
44.4253
44.3566
44.2884
44.2206
44.1533
44.0865
44.0203
43.9546
43.8895
43.8249
43.7609
43.6976
43.6348
43.5727
43.5113
43.4505
43.3904
43.331
43.2723
43.2143
43.1571
43.1005
43.0448
42.9898
42.9355
42.8821
42.8294
42.7775
42.7264
42.6762
42.6267
42.5781
42.5303
42.4834
42.4372
42.392
42.3476
42.304
42.2613
42.2195
42.1785
42.1384
42.0992
42.0608
42.0233
41.9867
41.951
41.9161
41.8822
41.849
41.8168
41.7854
41.755
41.7253
41.6966
41.6687
41.6417
41.6155
41.5902
41.5657
41.5421
41.5194
41.4974
41.4763
41.4561
41.4366
41.418
41.4002
41.3831
41.3669
41.3515
41.3368
41.323
41.3098
41.2975
41.2859
41.275
41.2649
41.2555
41.2468
41.2389
41.2316
41.225
41.2191
41.2139
41.2093
41.2054
41.2021
41.1995
41.1975
41.1961
41.1953
41.1951
41.1955
41.1964
41.1979
41.2
41.2026
41.2057
41.2094
41.2135
41.2182
41.2233
41.2289
41.235
41.2415
41.2484
41.2558
41.2636
41.2718
41.2804
41.2894
41.2988
41.3085
41.3186
41.329
41.3397
41.3508
41.3622
41.3738
41.3858
41.398
41.4105
41.4232
41.4362
41.4494
41.4628
41.4765
41.4903
41.5043
41.5185
41.5329
41.5474
41.5621
41.5769
41.5918
41.6069
41.622
41.6373
41.6526
41.668
41.6835
41.6991
41.7146
41.7303
41.7459
41.7616
41.7773
41.793
41.8087
41.8244
41.8401
41.8557
41.8713
41.8869
41.9023
41.9178
41.9331
41.9484
41.9636
41.9787
41.9937
42.0086
42.0234
42.0381
42.0526
42.067
42.0812
42.0953
42.1093
42.1231
42.1367
42.1501
42.1634
42.1765
42.1893
42.202
42.2145
42.2268
42.2388
42.2507
42.2623
42.2737
42.2849
42.2958
42.3065
42.3169
42.3271
42.337
42.3467
42.3561
42.3652
42.3741
42.3827
42.391
42.399
42.4068
42.4142
42.4214
42.4283
42.4349
42.4412
42.4472
42.4529
42.4583
42.4634
42.4681
42.4726
42.4768
42.4806
42.4841
42.4873
42.4902
42.4928
42.4951
42.497
42.4986
42.4999
42.5009
42.5015
42.5018
49.646
49.6439
49.6394
49.6331
49.6248
49.6149
49.6034
49.5904
49.5759
49.5601
49.543
49.5245
49.5046
49.4834
49.4609
49.437
49.4119
49.3854
49.3576
49.3285
49.2981
49.2664
49.2334
49.1992
49.1637
49.1269
49.0889
49.0496
49.0091
48.9674
48.9246
48.8805
48.8353
48.7889
48.7415
48.6929
48.6433
48.5926
48.5409
48.4882
48.4345
48.3798
48.3242
48.2676
48.2102
48.1519
48.0927
48.0327
47.9719
47.9103
47.848
47.7849
47.7211
47.6566
47.5914
47.5256
47.4592
47.3922
47.3246
47.2565
47.1879
47.1187
47.0491
46.9791
46.9087
46.8379
46.7667
46.6952
46.6234
46.5513
46.4789
46.4063
46.3335
46.2606
46.1875
46.1142
46.0409
45.9675
45.894
45.8205
45.747
45.6735
45.6001
45.5267
45.4535
45.3803
45.3073
45.2345
45.1618
45.0894
45.0172
44.9452
44.8735
44.8021
44.7311
44.6604
44.59
44.52
44.4504
44.3813
44.3125
44.2443
44.1765
44.1092
44.0424
43.9761
43.9104
43.8453
43.7807
43.7167
43.6533
43.5906
43.5285
43.467
43.4063
43.3461
43.2867
43.228
43.17
43.1128
43.0563
43.0005
42.9455
42.8912
42.8378
42.7851
42.7332
42.6822
42.6319
42.5825
42.5338
42.4861
42.4391
42.393
42.3478
42.3034
42.2598
42.2171
42.1753
42.1343
42.0942
42.055
42.0167
41.9792
41.9426
41.9069
41.8721
41.8381
41.805
41.7728
41.7414
41.711
41.6814
41.6526
41.6248
41.5978
41.5716
41.5463
41.5219
41.4983
41.4756
41.4537
41.4326
41.4123
41.3929
41.3743
41.3565
41.3395
41.3233
41.3079
41.2933
41.2794
41.2663
41.254
41.2424
41.2316
41.2215
41.2122
41.2035
41.1956
41.1883
41.1818
41.1759
41.1707
41.1662
41.1623
41.159
41.1564
41.1544
41.1531
41.1523
41.1521
41.1525
41.1535
41.155
41.1571
41.1598
41.1629
41.1666
41.1708
41.1754
41.1806
41.1862
41.1923
41.1989
41.2059
41.2133
41.2211
41.2293
41.238
41.247
41.2564
41.2661
41.2762
41.2867
41.2974
41.3085
41.3199
41.3316
41.3436
41.3558
41.3683
41.3811
41.3941
41.4073
41.4208
41.4344
41.4483
41.4623
41.4765
41.4909
41.5055
41.5202
41.535
41.5499
41.565
41.5802
41.5955
41.6108
41.6263
41.6418
41.6573
41.6729
41.6886
41.7043
41.72
41.7357
41.7514
41.7671
41.7828
41.7985
41.8141
41.8298
41.8453
41.8608
41.8763
41.8916
41.9069
41.9221
41.9373
41.9523
41.9672
41.982
41.9966
42.0112
42.0256
42.0399
42.054
42.0679
42.0817
42.0953
42.1088
42.1221
42.1352
42.148
42.1607
42.1732
42.1855
42.1976
42.2094
42.2211
42.2325
42.2436
42.2546
42.2653
42.2757
42.2859
42.2958
42.3055
42.3149
42.324
42.3329
42.3415
42.3498
42.3579
42.3656
42.3731
42.3803
42.3872
42.3938
42.4001
42.4061
42.4118
42.4172
42.4223
42.427
42.4315
42.4357
42.4395
42.443
42.4462
42.4491
42.4517
42.454
42.4559
42.4575
42.4588
42.4598
42.4604
42.4607
49.5865
49.5844
49.58
49.5736
49.5653
49.5554
49.5438
49.5307
49.5162
49.5003
49.483
49.4644
49.4444
49.4231
49.4005
49.3765
49.3513
49.3247
49.2968
49.2676
49.2372
49.2054
49.1724
49.1381
49.1025
49.0657
49.0276
48.9883
48.9478
48.906
48.8631
48.819
48.7738
48.7274
48.6799
48.6313
48.5817
48.5309
48.4792
48.4265
48.3727
48.318
48.2624
48.2058
48.1483
48.09
48.0308
47.9708
47.91
47.8483
47.786
47.7229
47.659
47.5945
47.5293
47.4635
47.3971
47.3301
47.2625
47.1943
47.1257
47.0565
46.9869
46.9169
46.8464
46.7756
46.7044
46.6329
46.561
46.4889
46.4166
46.344
46.2712
46.1982
46.1251
46.0518
45.9785
45.9051
45.8316
45.7581
45.6846
45.6111
45.5377
45.4643
45.391
45.3179
45.2449
45.172
45.0993
45.0269
44.9547
44.8827
44.811
44.7397
44.6686
44.5979
44.5275
44.4575
44.3879
44.3188
44.2501
44.1818
44.114
44.0467
43.9799
43.9137
43.848
43.7828
43.7183
43.6543
43.5909
43.5282
43.4661
43.4047
43.3439
43.2838
43.2244
43.1657
43.1078
43.0505
42.994
42.9383
42.8833
42.8291
42.7756
42.723
42.6711
42.6201
42.5698
42.5204
42.4718
42.4241
42.3771
42.3311
42.2858
42.2415
42.1979
42.1553
42.1135
42.0726
42.0325
41.9933
41.955
41.9176
41.881
41.8453
41.8105
41.7766
41.7435
41.7113
41.68
41.6496
41.62
41.5913
41.5635
41.5365
41.5104
41.4852
41.4608
41.4372
41.4145
41.3926
41.3716
41.3514
41.332
41.3134
41.2957
41.2787
41.2626
41.2472
41.2326
41.2188
41.2057
41.1934
41.1819
41.1711
41.161
41.1517
41.1431
41.1352
41.128
41.1215
41.1156
41.1105
41.106
41.1021
41.0989
41.0964
41.0944
41.0931
41.0923
41.0922
41.0926
41.0937
41.0952
41.0973
41.1
41.1032
41.1069
41.1111
41.1158
41.121
41.1267
41.1328
41.1394
41.1464
41.1538
41.1617
41.17
41.1786
41.1877
41.1971
41.2069
41.217
41.2275
41.2383
41.2494
41.2608
41.2725
41.2845
41.2968
41.3093
41.3221
41.3351
41.3484
41.3619
41.3755
41.3894
41.4035
41.4177
41.4321
41.4467
41.4614
41.4763
41.4912
41.5063
41.5215
41.5368
41.5522
41.5677
41.5832
41.5988
41.6144
41.6301
41.6458
41.6615
41.6772
41.6929
41.7087
41.7244
41.7401
41.7558
41.7714
41.787
41.8025
41.8179
41.8333
41.8486
41.8639
41.879
41.894
41.9089
41.9237
41.9384
41.953
41.9674
41.9817
41.9958
42.0097
42.0235
42.0372
42.0506
42.0639
42.077
42.0899
42.1026
42.1151
42.1274
42.1395
42.1514
42.163
42.1744
42.1856
42.1965
42.2072
42.2176
42.2278
42.2378
42.2474
42.2569
42.266
42.2749
42.2835
42.2918
42.2999
42.3076
42.3151
42.3223
42.3292
42.3358
42.3421
42.3481
42.3538
42.3592
42.3643
42.3691
42.3735
42.3777
42.3815
42.3851
42.3883
42.3912
42.3937
42.396
42.3979
42.3996
42.4008
42.4018
42.4025
42.4028
49.5419
49.5398
49.5355
49.5293
49.5211
49.5113
49.4998
49.4868
49.4723
49.4564
49.4391
49.4205
49.4005
49.3792
49.3565
49.3325
49.3072
49.2805
49.2526
49.2233
49.1928
49.161
49.1279
49.0935
49.0579
49.021
48.9828
48.9435
48.9029
48.8611
48.8181
48.7739
48.7286
48.6822
48.6346
48.586
48.5363
48.4855
48.4337
48.3809
48.3271
48.2723
48.2166
48.16
48.1025
48.0441
47.9849
47.9248
47.8639
47.8022
47.7398
47.6766
47.6128
47.5482
47.483
47.4171
47.3506
47.2835
47.2158
47.1477
47.0789
47.0097
46.9401
46.87
46.7995
46.7286
46.6574
46.5858
46.5139
46.4417
46.3693
46.2967
46.2238
46.1508
46.0776
46.0043
45.9309
45.8575
45.7839
45.7104
45.6368
45.5633
45.4898
45.4164
45.3431
45.2699
45.1968
45.124
45.0513
44.9788
44.9065
44.8345
44.7628
44.6914
44.6203
44.5495
44.4791
44.4091
44.3395
44.2703
44.2015
44.1332
44.0654
43.9981
43.9313
43.865
43.7993
43.7341
43.6695
43.6056
43.5422
43.4794
43.4173
43.3559
43.2951
43.235
43.1756
43.1169
43.0589
43.0016
42.9451
42.8893
42.8343
42.7801
42.7267
42.674
42.6222
42.5711
42.5209
42.4715
42.4229
42.3751
42.3282
42.2821
42.2369
42.1925
42.149
42.1064
42.0646
42.0237
41.9836
41.9444
41.9061
41.8687
41.8322
41.7965
41.7617
41.7278
41.6947
41.6626
41.6313
41.6009
41.5713
41.5426
41.5148
41.4879
41.4618
41.4366
41.4122
41.3887
41.366
41.3442
41.3232
41.303
41.2836
41.2651
41.2473
41.2304
41.2143
41.1989
41.1844
41.1706
41.1576
41.1453
41.1338
41.1231
41.113
41.1037
41.0952
41.0873
41.0801
41.0736
41.0678
41.0627
41.0582
41.0544
41.0513
41.0487
41.0468
41.0455
41.0448
41.0447
41.0452
41.0462
41.0479
41.05
41.0527
41.0559
41.0597
41.0639
41.0687
41.0739
41.0796
41.0858
41.0924
41.0994
41.1069
41.1148
41.1231
41.1318
41.1409
41.1503
41.1602
41.1703
41.1808
41.1917
41.2028
41.2143
41.226
41.238
41.2503
41.2629
41.2757
41.2888
41.3021
41.3156
41.3293
41.3432
41.3573
41.3716
41.386
41.4006
41.4153
41.4302
41.4452
41.4603
41.4756
41.4909
41.5063
41.5218
41.5373
41.5529
41.5686
41.5843
41.6
41.6157
41.6315
41.6472
41.663
41.6787
41.6945
41.7101
41.7258
41.7414
41.7569
41.7724
41.7878
41.8032
41.8184
41.8335
41.8486
41.8635
41.8783
41.893
41.9076
41.922
41.9363
41.9505
41.9645
41.9783
41.9919
42.0054
42.0187
42.0318
42.0447
42.0574
42.07
42.0823
42.0944
42.1062
42.1179
42.1293
42.1405
42.1514
42.1621
42.1726
42.1828
42.1927
42.2024
42.2118
42.221
42.2299
42.2385
42.2468
42.2549
42.2627
42.2701
42.2773
42.2842
42.2908
42.2971
42.3032
42.3089
42.3143
42.3194
42.3241
42.3286
42.3328
42.3366
42.3402
42.3434
42.3463
42.3488
42.3511
42.353
42.3547
42.356
42.3569
42.3576
42.3579
49.4852
49.4831
49.4788
49.4726
49.4645
49.4547
49.4432
49.4302
49.4157
49.3998
49.3824
49.3637
49.3436
49.3222
49.2994
49.2754
49.2499
49.2232
49.1952
49.1659
49.1353
49.1034
49.0702
49.0358
49.0001
48.9631
48.9249
48.8854
48.8448
48.8029
48.7599
48.7156
48.6703
48.6238
48.5762
48.5275
48.4777
48.4269
48.375
48.3222
48.2684
48.2135
48.1578
48.1011
48.0436
47.9851
47.9258
47.8657
47.8048
47.7431
47.6806
47.6174
47.5534
47.4888
47.4235
47.3576
47.2911
47.2239
47.1562
47.088
47.0193
46.95
46.8803
46.8102
46.7396
46.6687
46.5974
46.5258
46.4539
46.3817
46.3092
46.2365
46.1636
46.0906
46.0174
45.944
45.8706
45.7971
45.7235
45.6499
45.5763
45.5028
45.4292
45.3558
45.2825
45.2092
45.1361
45.0632
44.9905
44.918
44.8457
44.7737
44.7019
44.6305
44.5593
44.4886
44.4181
44.3481
44.2785
44.2093
44.1405
44.0722
44.0043
43.937
43.8702
43.8039
43.7382
43.673
43.6084
43.5444
43.481
43.4182
43.3561
43.2947
43.2339
43.1738
43.1144
43.0556
42.9977
42.9404
42.8839
42.8281
42.7732
42.7189
42.6655
42.6128
42.561
42.51
42.4597
42.4103
42.3617
42.314
42.2671
42.221
42.1758
42.1315
42.088
42.0454
42.0036
41.9627
41.9227
41.8835
41.8452
41.8078
41.7713
41.7357
41.7009
41.667
41.634
41.6019
41.5706
41.5402
41.5107
41.4821
41.4543
41.4274
41.4013
41.3761
41.3518
41.3283
41.3057
41.2839
41.2629
41.2427
41.2234
41.2049
41.1872
41.1703
41.1542