/*--------------------------------*- C++ -*----------------------------------*\
| =========                 |                                                 |
| \\      /  F ield         | OpenFOAM: The Open Source CFD Toolbox           |
|  \\    /   O peration     | Version:  2212                                  |
|   \\  /    A nd           | Website:  www.openfoam.com                      |
|    \\/     M anipulation  |                                                 |
\*---------------------------------------------------------------------------*/
FoamFile
{
    version     2.0;
    format      ascii;
    arch        "LSB;label=32;scalar=64";
    class       surfaceScalarField;
    location    "870";
    object      phi;
}
// * * * * * * * * * * * * * * * * * * * * * * * * * * * * * * * * * * * * * //

dimensions      [1 0 -1 0 0 0 0];

oriented        oriented;

internalField   nonuniform List<scalar> 
408640
(
-852.047
853.836
-1681.31
829.491
-2464.53
783.448
-3187.75
723.452
-3846.98
659.47
-4446.24
599.514
-4995.3
549.304
-5506.33
511.282
-5991.51
485.437
-6461.24
469.988
-6923.44
462.445
-7383.44
460.258
-7844.48
461.286
-8308.16
463.932
-8775.05
467.146
-9245.11
470.305
-9717.95
473.093
-10193.1
475.382
-10670
477.154
-11148.2
478.441
-11627.2
479.292
-12106.7
479.763
-12586.4
479.902
-13065.9
479.751
-13545
479.346
-14023.5
478.716
-14501.1
477.885
-14977.8
476.873
-15453.2
475.695
-15927.3
474.367
-16400
472.899
-16871.1
471.302
-17340.4
469.583
-17807.9
467.751
-18273.5
465.811
-18737.1
463.769
-19198.5
461.629
-19657.7
459.396
-20114.5
457.075
-20569
454.667
-21020.9
452.176
-21470.3
449.605
-21917
446.956
-22361.1
444.232
-22802.3
441.435
-23240.6
438.567
-23676.1
435.629
-24108.5
432.624
-24537.8
429.552
-24964
426.416
-25387.1
423.217
-25806.8
419.956
-26223.3
416.635
-26636.3
413.255
-27045.9
409.817
-27452.1
406.322
-27854.7
402.772
-28253.6
399.168
-28649
395.51
-29040.6
391.801
-29428.5
388.041
-29812.5
384.23
-30192.7
380.372
-30569
376.465
-30941.3
372.512
-31309.7
368.513
-31674
364.469
-32034.2
360.383
-32390.3
356.253
-32742.2
352.082
-33089.9
347.87
-33433.4
343.619
-33772.6
339.33
-34107.4
335.003
-34437.9
330.639
-34764
326.24
-35085.7
321.806
-35402.9
317.339
-35715.6
312.84
-36023.8
308.308
-36327.4
303.747
-36626.4
299.156
-36920.8
294.536
-37210.6
289.889
-37495.7
285.215
-37776.1
280.515
-38051.8
275.791
-38322.7
271.043
-38588.8
266.273
-38850.2
261.481
-39106.8
256.668
-39358.5
251.836
-39605.4
246.985
-39847.4
242.116
-40084.5
237.23
-40316.8
232.328
-40544.1
227.412
-40766.5
222.481
-40983.9
217.538
-41196.4
212.583
-41404
207.616
-41606.5
202.639
-41804.1
197.653
-41996.7
192.659
-42184.3
187.657
-42366.9
182.649
-42544.4
177.635
-42717
172.617
-42884.5
167.595
-43047
162.57
-43204.5
157.543
-43357
152.515
-43504.4
147.486
-43646.8
142.459
-43784.2
137.432
-43916.6
132.408
-44043.9
127.387
-44166.3
122.371
-44283.6
117.359
-44395.9
112.352
-44503.2
107.352
-44605.6
102.359
-44702.9
97.3742
-44795.3
92.398
-44882.7
87.4314
-44965.2
82.475
-45042.7
77.5296
-45115.3
72.596
-45182.9
67.6747
-45245.7
62.7667
-45303.5
57.8725
-45356.5
52.9929
-45404.7
48.1285
-45447.9
43.28
-45486.4
38.448
-45520
33.6332
-45548.9
28.8363
-45572.9
24.0577
-45592.3
19.2982
-45606.8
14.5584
-45616.7
9.83875
-45621.8
5.1399
-45622.3
0.462414
-45618.2
-4.19318
-45609.4
-8.82634
-45596
-13.4366
-45578
-18.0233
-45555.4
-22.5861
-45528.3
-27.1244
-45496.7
-31.6379
-45460.7
-36.1259
-45420.1
-40.5881
-45375.1
-45.0241
-45325.7
-49.4334
-45272
-53.8156
-45213.9
-58.1703
-45151.4
-62.4971
-45084.7
-66.7957
-45013.7
-71.0657
-44938.4
-75.3067
-44859
-79.5184
-44775.4
-83.7005
-44687.6
-87.8527
-44595.7
-91.9746
-44499.7
-96.066
-44399.6
-100.127
-44295.6
-104.156
-44187.5
-108.155
-44075.4
-112.121
-43959.5
-116.056
-43839.6
-119.959
-43715.9
-123.83
-43588.3
-127.668
-43456.9
-131.474
-43321.8
-135.247
-43182.9
-138.987
-43040.3
-142.694
-42894
-146.368
-42744.1
-150.008
-42590.6
-153.615
-42433.6
-157.189
-42272.9
-160.729
-42108.8
-164.235
-41941.2
-167.707
-41770.2
-171.145
-41595.8
-174.549
-41418
-177.92
-41236.9
-181.256
-41052.4
-184.558
-40864.8
-187.826
-40673.8
-191.06
-40479.7
-194.26
-40282.4
-197.425
-40082
-200.557
-39878.5
-203.654
-39671.9
-206.717
-39462.3
-209.747
-39249.8
-212.742
-39034.2
-215.703
-38815.7
-218.63
-38594.4
-221.524
-38370.2
-224.384
-38143.1
-227.21
-37913.3
-230.002
-37680.7
-232.761
-37445.4
-235.486
-37207.4
-238.178
-36966.7
-240.837
-36723.4
-243.463
-36477.6
-246.056
-36229.1
-248.616
-35978.2
-251.143
-35724.7
-253.637
-35468.8
-256.1
-35210.5
-258.529
-34949.8
-260.927
-34686.7
-263.292
-34421.3
-265.626
-34153.5
-267.928
-33883.5
-270.198
-33611.3
-272.437
-33336.9
-274.645
-33060.3
-276.822
-32781.5
-278.968
-32500.7
-281.083
-32217.7
-283.168
-31932.7
-285.222
-31645.7
-287.246
-31356.7
-289.241
-31065.7
-291.205
-30772.8
-293.14
-30478
-295.046
-30181.3
-296.923
-29882.8
-298.77
-29582.4
-300.589
-29280.3
-302.379
-28976.4
-304.141
-28670.8
-305.875
-28363.5
-307.581
-28054.5
-309.259
-27743.8
-310.91
-27431.5
-312.533
-27117.7
-314.129
-26802.2
-315.698
-26485.2
-317.241
-26166.8
-318.757
-25846.8
-320.247
-25525.3
-321.71
-25202.5
-323.148
-24878.2
-324.561
-24552.5
-325.947
-24225.5
-327.309
-23897.1
-328.645
-23567.5
-329.957
-23236.5
-331.244
-22904.3
-332.507
-22570.8
-333.745
-22236.2
-334.96
-21900.3
-336.15
-21563.3
-337.317
-21225.1
-338.461
-20885.8
-339.581
-20545.5
-340.679
-20204
-341.753
-19861.5
-342.805
-19518
-343.834
-19173.5
-344.841
-18828
-345.826
-18481.5
-346.789
-18134.1
-347.731
-17785.7
-348.65
-17436.5
-349.549
-17086.4
-350.426
-16735.4
-351.282
-16383.6
-352.117
-16031
-352.932
-15677.6
-353.726
-15323.5
-354.499
-14968.5
-355.253
-14612.9
-355.986
-14256.5
-356.699
-13899.5
-357.393
-13541.7
-358.067
-13183.4
-358.721
-12824.3
-359.356
-12464.7
-359.972
-12104.5
-360.569
-11743.7
-361.147
-11382.3
-361.706
-11020.4
-362.247
-10658
-362.768
-10295.1
-363.272
-9931.65
-363.757
-9567.77
-364.225
-9203.45
-364.674
-8838.7
-365.105
-8473.53
-365.519
-8107.97
-365.915
-7742.03
-366.293
-7375.73
-366.654
-7009.08
-366.998
-6642.11
-367.325
-6274.84
-367.635
-5907.26
-367.928
-5539.42
-368.204
-5171.31
-368.464
-4802.97
-368.706
-4434.39
-368.933
-4065.61
-369.142
-3696.63
-369.335
-3327.48
-369.512
-2958.17
-369.671
-2588.72
-369.814
-2219.14
-369.94
-1849.46
-370.049
-1479.68
-370.14
-1109.82
-370.214
-739.916
-370.271
-369.968
-370.31
-370.331
-839.408
1693.46
-1656.76
1647.07
-2430.83
1557.75
-3148.48
1441.33
-3805.48
1316.71
-4405.33
1199.61
-4956.91
1101.14
-5471.59
1026.21
-5960.82
974.928
-6434.52
943.938
-6900.28
928.455
-7363.31
923.542
-7826.8
925.031
-8292.41
929.794
-8760.78
935.762
-9231.92
941.699
-9705.55
946.968
-10181.2
951.306
-10658.5
954.663
-11136.9
957.09
-11616
958.679
-12095.6
959.532
-12575.1
959.739
-13054.5
959.383
-13533.5
958.528
-14011.7
957.232
-14489.2
955.541
-14965.5
953.492
-15440.7
951.118
-15914.6
948.445
-16386.9
945.496
-16857.7
942.29
-17326.7
938.844
-17793.9
935.171
-18259.1
931.284
-18722.3
927.194
-19183.4
922.911
-19642.2
918.442
-20098.7
913.794
-20552.8
908.976
-21004.4
903.992
-21453.4
898.849
-21899.8
893.55
-22343.5
888.101
-22784.3
882.506
-23222.3
876.769
-23657.4
870.894
-24089.4
864.883
-24518.4
858.74
-24944.3
852.468
-25366.9
846.07
-25786.3
839.549
-26202.4
832.908
-26615.1
826.148
-27024.4
819.273
-27430.1
812.285
-27832.4
805.186
-28231
797.979
-28626
790.666
-29017.2
783.249
-29404.8
775.73
-29788.5
768.112
-30168.3
760.396
-30544.3
752.584
-30916.3
744.68
-31284.3
736.684
-31648.2
728.6
-32008.1
720.428
-32363.9
712.171
-32715.5
703.831
-33062.8
695.411
-33406
686.911
-33744.8
678.334
-34079.4
669.683
-34409.5
660.958
-34735.3
652.163
-35056.7
643.298
-35373.6
634.367
-35686
625.37
-35993.8
616.311
-36297.1
607.19
-36595.9
598.011
-36890
588.775
-37179.4
579.483
-37464.3
570.138
-37744.4
560.742
-38019.8
551.297
-38290.4
541.805
-38556.3
532.268
-38817.4
522.687
-39073.7
513.065
-39325.1
503.404
-39571.8
493.705
-39813.5
483.97
-40050.4
474.202
-40282.4
464.403
-40509.4
454.573
-40731.6
444.716
-40948.8
434.833
-41161.1
424.925
-41368.4
414.996
-41570.7
405.046
-41768
395.078
-41960.4
385.093
-42147.8
375.094
-42330.1
365.081
-42507.5
355.058
-42679.8
345.025
-42847.2
334.985
-43009.5
324.938
-43166.8
314.888
-43319
304.836
-43466.3
294.784
-43608.5
284.732
-43745.7
274.684
-43877.9
264.64
-44005.1
254.602
-44127.2
244.573
-44244.4
234.553
-44356.5
224.544
-44463.7
214.548
-44565.9
204.566
-44663.1
194.601
-44755.3
184.653
-44842.6
174.724
-44924.9
164.815
-45002.3
154.929
-45074.8
145.066
-45142.3
135.228
-45204.9
125.416
-45262.7
115.632
-45315.6
105.877
-45363.6
96.1527
-45406.8
86.4601
-45445.1
76.8005
-45478.7
67.1754
-45507.4
57.5859
-45531.4
48.0332
-45550.7
38.5187
-45565.2
29.0434
-45575
19.6085
-45580
10.2153
-45580.5
0.864754
-45576.3
-8.44199
-45567.4
-17.7039
-45553.9
-26.9199
-45535.9
-36.0889
-45513.3
-45.2101
-45486.2
-54.2823
-45454.6
-63.3047
-45418.5
-72.2764
-45377.9
-81.1964
-45332.9
-90.0639
-45283.5
-98.8781
-45229.7
-107.638
-45171.6
-116.343
-45109.2
-124.992
-45042.5
-133.585
-44971.5
-142.121
-44896.2
-150.598
-44816.8
-159.017
-44733.2
-167.377
-44645.4
-175.677
-44553.6
-183.917
-44457.6
-192.095
-44357.6
-200.212
-44253.6
-208.267
-44145.6
-216.259
-44033.6
-224.189
-43917.7
-232.054
-43797.9
-239.856
-43674.2
-247.593
-43546.7
-255.266
-43415.4
-262.873
-43280.3
-270.415
-43141.5
-277.891
-42999
-285.301
-42852.8
-292.644
-42703
-299.921
-42549.6
-307.131
-42392.7
-314.274
-42232.1
-321.349
-42068.1
-328.357
-41900.7
-335.298
-41729.8
-342.17
-41555.5
-348.975
-41377.8
-355.712
-41196.8
-362.38
-41012.5
-368.981
-40825
-375.513
-40634.2
-381.977
-40440.2
-388.372
-40243.1
-394.7
-40042.8
-400.959
-39839.5
-407.15
-39633.1
-413.273
-39423.6
-419.328
-39211.2
-425.314
-38995.8
-431.233
-38777.6
-437.084
-38556.4
-442.868
-38332.3
-448.584
-38105.5
-454.232
-37875.8
-459.813
-37643.4
-465.328
-37408.3
-470.775
-37170.5
-476.156
-36930.1
-481.47
-36687
-486.719
-36441.3
-491.901
-36193.1
-497.017
-35942.4
-502.068
-35689.2
-507.054
-35433.5
-511.975
-35175.4
-516.832
-34914.9
-521.624
-34652
-526.352
-34386.8
-531.016
-34119.3
-535.617
-33849.6
-540.155
-33577.6
-544.63
-33303.4
-549.042
-33027.1
-553.393
-32748.6
-557.682
-32468
-561.909
-32185.3
-566.076
-31900.5
-570.182
-31613.8
-574.228
-31325
-578.214
-31034.3
-582.14
-30741.7
-586.008
-30447.2
-589.816
-30150.8
-593.567
-29852.5
-597.26
-29552.4
-600.895
-29250.6
-604.473
-28947
-607.994
-28641.7
-611.459
-28334.6
-614.868
-28025.9
-618.222
-27715.6
-621.521
-27403.6
-624.765
-27090
-627.955
-26774.9
-631.092
-26458.2
-634.175
-26140
-637.205
-25820.4
-640.182
-25499.2
-643.107
-25176.7
-645.981
-24852.7
-648.804
-24527.4
-651.575
-24200.7
-654.296
-23872.6
-656.967
-23543.3
-659.589
-23212.6
-662.161
-22880.8
-664.685
-22547.6
-667.16
-22213.3
-669.587
-21877.8
-671.966
-21541.1
-674.298
-21203.3
-676.584
-20864.3
-678.823
-20524.3
-681.016
-20183.2
-683.163
-19841
-685.265
-19497.9
-687.322
-19153.7
-689.335
-18808.5
-691.303
-18462.4
-693.228
-18115.3
-695.109
-17767.3
-696.947
-17418.5
-698.743
-17068.7
-700.496
-16718.1
-702.206
-16366.7
-703.876
-16014.4
-705.503
-15661.4
-707.09
-15307.6
-708.636
-14953
-710.142
-14597.7
-711.607
-14241.7
-713.033
-13885
-714.419
-13527.7
-715.766
-13169.7
-717.073
-12811
-718.343
-12451.7
-719.573
-12091.9
-720.766
-11731.5
-721.921
-11370.5
-723.039
-11008.9
-724.119
-10646.9
-725.162
-10284.3
-726.168
-9921.31
-727.138
-9557.81
-728.071
-9193.86
-728.969
-8829.49
-729.831
-8464.7
-730.658
-8099.51
-731.449
-7733.96
-732.205
-7368.04
-732.927
-7001.77
-733.614
-6635.19
-734.268
-6268.29
-734.887
-5901.1
-735.472
-5533.64
-736.024
-5165.92
-736.543
-4797.95
-737.028
-4429.77
-737.48
-4061.37
-737.899
-3692.78
-738.285
-3324.01
-738.637
-2955.09
-738.956
-2586.02
-739.242
-2216.83
-739.493
-1847.53
-739.711
-1478.13
-739.893
-1108.67
-740.042
-739.147
-740.154
-369.585
-740.233
-740.278
-821.559
2515.24
-1622.6
2448.33
-2384.01
2319.38
-3093.71
2151.26
-3747.47
1970.71
-4348.09
1800.48
-4903.33
1656.62
-5423.36
1546.49
-5918.62
1470.44
-6398.26
1423.84
-6869.43
1399.87
-7337.1
1391.47
-7804.42
1392.6
-8273.09
1398.71
-8743.84
1406.76
-9216.82
1414.93
-9691.83
1422.23
-10168.5
1428.27
-10646.6
1432.94
-11125.5
1436.29
-11605.1
1438.45
-12084.8
1439.56
-12564.6
1439.73
-13044
1439.08
-13523
1437.71
-14001.2
1435.69
-14478.5
1433.1
-14954.7
1429.98
-15429.8
1426.37
-15903.4
1422.33
-16375.6
1417.88
-16846.1
1413.05
-17314.9
1407.86
-17781.8
1402.33
-18246.8
1396.49
-18709.7
1390.34
-19170.4
1383.9
-19629
1377.19
-20085.2
1370.21
-20538.9
1362.98
-20990.2
1355.5
-21438.9
1347.78
-21885
1339.82
-22328.3
1331.65
-22768.9
1323.25
-23206.5
1314.64
-23641.3
1305.83
-24073
1296.81
-24501.6
1287.6
-24927.2
1278.19
-25349.5
1268.59
-25768.5
1258.81
-26184.3
1248.85
-26596.7
1238.71
-27005.6
1228.4
-27411
1217.92
-27812.9
1207.27
-28211.2
1196.46
-28605.9
1185.49
-28996.8
1174.37
-29384
1163.09
-29767.4
1151.67
-30146.9
1140.09
-30522.5
1128.38
-30894.2
1116.53
-31261.9
1104.53
-31625.5
1092.41
-31985.1
1080.16
-32340.5
1067.77
-32691.8
1055.27
-33038.9
1042.64
-33381.7
1029.89
-33720.3
1017.03
-34054.5
1004.06
-34384.3
990.973
-34709.8
977.783
-35030.9
964.49
-35347.5
951.097
-35659.6
937.606
-35967.1
924.021
-36270.2
910.344
-36568.6
896.579
-36862.4
882.728
-37151.6
868.795
-37436.1
854.782
-37716
840.693
-37991.1
826.529
-38261.5
812.296
-38527.1
797.994
-38787.9
783.627
-39043.9
769.199
-39295.1
754.711
-39541.5
740.168
-39783
725.571
-40019.6
710.924
-40251.4
696.229
-40478.2
681.49
-40700.1
666.709
-40917.1
651.889
-41129.1
637.033
-41336.2
622.144
-41538.3
607.225
-41735.4
592.278
-41927.5
577.306
-42114.7
562.312
-42296.8
547.299
-42474
532.269
-42646.1
517.225
-42813.2
502.17
-42975.3
487.106
-43132.4
472.037
-43284.5
456.964
-43431.6
441.891
-43573.6
426.819
-43710.6
411.752
-43842.6
396.692
-43969.6
381.642
-44091.6
366.603
-44208.6
351.579
-44320.6
336.572
-44427.6
321.584
-44529.6
306.618
-44626.7
291.675
-44718.8
276.759
-44805.9
261.872
-44888.1
247.015
-44965.3
232.192
-45037.7
217.403
-45105.1
202.652
-45167.6
187.941
-45225.2
173.271
-45278
158.645
-45325.9
144.064
-45369
129.532
-45407.2
115.049
-45440.7
100.617
-45469.3
86.239
-45493.2
71.9164
-45512.4
57.6508
-45526.8
43.4442
-45536.5
29.2983
-45541.5
15.2147
-45541.9
1.19527
-45537.6
-12.7585
-45528.7
-26.645
-45515.2
-40.4626
-45497.1
-54.2098
-45474.4
-67.8852
-45447.3
-81.4872
-45415.6
-95.0144
-45379.4
-108.466
-45338.8
-121.839
-45293.8
-135.134
-45244.4
-148.349
-45190.6
-161.483
-45132.5
-174.534
-45070
-187.501
-45003.3
-200.384
-44932.3
-213.181
-44857
-225.891
-44777.6
-238.514
-44694
-251.047
-44606.3
-263.491
-44514.4
-275.844
-44418.5
-288.105
-44318.5
-300.274
-44214.5
-312.351
-44106.5
-324.333
-43994.6
-336.22
-43878.7
-348.012
-43758.9
-359.709
-43635.3
-371.309
-43507.8
-382.811
-43376.6
-394.216
-43241.6
-405.523
-43102.8
-416.731
-42960.4
-427.839
-42814.3
-438.849
-42664.6
-449.758
-42511.3
-460.567
-42354.4
-471.275
-42194
-481.883
-42030
-492.389
-41862.7
-502.793
-41691.9
-513.096
-41517.7
-523.298
-41340.1
-533.397
-41159.2
-543.394
-40975
-553.289
-40787.6
-563.081
-40597
-572.772
-40403.1
-582.359
-40206.1
-591.845
-40006
-601.228
-39802.8
-610.509
-39596.5
-619.688
-39387.2
-628.765
-39174.9
-637.739
-38959.7
-646.612
-38741.6
-655.384
-38520.6
-664.053
-38296.7
-672.622
-38070
-681.089
-37840.5
-689.456
-37608.3
-697.722
-37373.4
-705.889
-37135.7
-713.955
-36895.5
-721.921
-36652.6
-729.789
-36407.1
-737.557
-36159.1
-745.227
-35908.5
-752.799
-35655.5
-760.273
-35400
-767.649
-35142.1
-774.929
-34881.8
-782.112
-34619.2
-789.2
-34354.2
-796.191
-34086.9
-803.088
-33817.4
-809.89
-33545.7
-816.598
-33271.7
-823.213
-32995.6
-829.735
-32717.3
-836.164
-32436.9
-842.501
-32154.5
-848.746
-31870
-854.901
-31583.5
-860.966
-31295
-866.94
-31004.5
-872.826
-30712.2
-878.623
-30417.9
-884.332
-30121.7
-889.954
-29823.7
-895.489
-29523.9
-900.938
-29222.3
-906.301
-28919
-911.58
-28613.9
-916.774
-28307.2
-921.884
-27998.7
-926.911
-27688.7
-931.856
-27377
-936.718
-27063.7
-941.5
-26748.8
-946.201
-26432.5
-950.822
-26114.6
-955.364
-25795.2
-959.827
-25474.4
-964.211
-25152.1
-968.519
-24828.4
-972.749
-24503.4
-976.903
-24177
-980.982
-23849.2
-984.986
-23520.2
-988.915
-23189.9
-992.77
-22858.3
-996.553
-22525.5
-1000.26
-22191.5
-1003.9
-21856.3
-1007.47
-21519.9
-1010.96
-21182.4
-1014.39
-20843.8
-1017.74
-20504.1
-1021.03
-20163.3
-1024.25
-19821.4
-1027.4
-19478.6
-1030.48
-19134.7
-1033.5
-18789.9
-1036.45
-18444.1
-1039.33
-18097.4
-1042.15
-17749.7
-1044.91
-17401.2
-1047.6
-17051.8
-1050.23
-16701.5
-1052.79
-16350.4
-1055.29
-15998.5
-1057.73
-15645.8
-1060.11
-15292.4
-1062.43
-14938.1
-1064.69
-14583.2
-1066.88
-14227.6
-1069.02
-13871.2
-1071.1
-13514.2
-1073.11
-13156.5
-1075.07
-12798.2
-1076.98
-12439.3
-1078.82
-12079.8
-1080.61
-11719.7
-1082.34
-11359.1
-1084.01
-10997.9
-1085.63
-10636.3
-1087.2
-10274.1
-1088.71
-9911.39
-1090.16
-9548.25
-1091.56
-9184.67
-1092.9
-8820.65
-1094.2
-8456.23
-1095.43
-8091.41
-1096.62
-7726.21
-1097.75
-7360.66
-1098.84
-6994.76
-1099.87
-6628.54
-1100.84
-6262.01
-1101.77
-5895.19
-1102.65
-5528.1
-1103.48
-5160.74
-1104.25
-4793.15
-1104.98
-4425.33
-1105.66
-4057.3
-1106.29
-3689.08
-1106.86
-3320.68
-1107.39
-2952.13
-1107.87
-2583.43
-1108.3
-2214.61
-1108.68
-1845.68
-1109
-1476.65
-1109.28
-1107.56
-1109.5
-738.404
-1109.67
-369.212
-1109.79
-1109.85
-797.685
3313.15
-1576.97
3227.84
-2321.5
3064.14
-3020.6
2850.61
-3670.11
2620.46
-4271.89
2402.51
-4832.21
2217.19
-5359.68
2074.21
-5863.31
1974.33
-6351.25
1912.03
-6829.98
1878.85
-7304.18
1865.92
-7776.9
1865.58
-8249.92
1871.99
-8724.12
1881.21
-9199.79
1890.85
-9676.9
1899.58
-10155.2
1906.84
-10634.5
1912.45
-11114.4
1916.44
-11594.6
1918.95
-12075
1920.12
-12555.1
1920.12
-13034.8
1919.07
-13514
1917.09
-13992.3
1914.28
-14469.7
1910.71
-14945.9
1906.47
-15420.9
1901.59
-15894.5
1896.14
-16366.5
1890.16
-16836.9
1883.67
-17305.6
1876.72
-17772.3
1869.32
-18237.1
1861.5
-18699.8
1853.28
-19160.4
1844.68
-19618.7
1835.71
-20074.7
1826.39
-20528.2
1816.74
-20979.2
1806.75
-21427.7
1796.45
-21873.5
1785.84
-22316.6
1774.93
-22756.8
1763.73
-23194.2
1752.25
-23628.7
1740.49
-24060.1
1728.46
-24488.5
1716.17
-24913.7
1703.63
-25335.8
1690.83
-25754.5
1677.78
-26170
1664.5
-26582.1
1650.98
-26990.7
1637.23
-27395.9
1623.26
-27797.5
1609.06
-28195.5
1594.65
-28589.8
1580.03
-28980.5
1565.2
-29367.4
1550.16
-29750.5
1534.93
-30129.7
1519.5
-30505
1503.88
-30876.4
1488.08
-31243.8
1472.1
-31607.2
1455.93
-31966.4
1439.6
-32321.6
1423.09
-32672.6
1406.42
-33019.4
1389.58
-33361.9
1372.59
-33700.2
1355.44
-34034.1
1338.15
-34363.7
1320.71
-34688.9
1303.12
-35009.7
1285.4
-35326
1267.55
-35637.8
1249.57
-35945.1
1231.46
-36247.9
1213.22
-36546
1194.88
-36839.6
1176.41
-37128.5
1157.84
-37412.8
1139.16
-37692.3
1120.38
-37967.2
1101.5
-38237.3
1082.53
-38502.7
1063.46
-38763.2
1044.31
-39019
1025.08
-39270
1005.77
-39516.1
986.38
-39757.3
966.923
-39993.7
947.399
-40225.2
927.812
-40451.8
908.165
-40673.5
888.463
-40890.2
868.709
-41102
848.907
-41308.8
829.061
-41510.7
809.174
-41707.6
789.251
-41899.5
769.294
-42086.4
749.309
-42268.4
729.297
-42445.3
709.264
-42617.2
689.212
-42784.1
669.145
-42946
649.067
-43102.9
628.98
-43254.8
608.89
-43401.6
588.799
-43543.5
568.71
-43680.3
548.628
-43812.1
528.555
-43939
508.494
-44060.8
488.45
-44177.6
468.425
-44289.4
448.422
-44396.2
428.446
-44498.1
408.498
-44595
388.582
-44686.9
368.701
-44773.8
348.858
-44855.9
329.057
-44933
309.299
-45005.1
289.589
-45072.4
269.928
-45134.8
250.321
-45192.3
230.768
-45244.9
211.275
-45292.7
191.842
-45335.6
172.472
-45373.7
153.169
-45407.1
133.935
-45435.6
114.772
-45459.4
95.683
-45478.4
76.6701
-45492.7
57.7358
-45502.3
38.8825
-45507.2
20.1123
-45507.5
1.42761
-45503.1
-17.1695
-45494.1
-35.6768
-45480.5
-54.0923
-45462.3
-72.4139
-45439.6
-90.6397
-45412.4
-108.768
-45380.6
-126.796
-45344.4
-144.723
-45303.7
-162.546
-45258.7
-180.265
-45209.2
-197.876
-45155.3
-215.38
-45097.2
-232.773
-45034.7
-250.055
-44967.9
-267.224
-44896.8
-284.278
-44821.6
-301.217
-44742.1
-318.039
-44658.5
-334.742
-44570.7
-351.325
-44478.9
-367.788
-44382.9
-384.129
-44282.9
-400.346
-44178.9
-416.439
-44070.9
-432.407
-43959
-448.249
-43843.1
-463.964
-43723.3
-479.551
-43599.7
-495.009
-43472.3
-510.338
-43341.1
-525.537
-43206.1
-540.604
-43067.4
-555.54
-42925
-570.344
-42778.9
-585.015
-42629.2
-599.553
-42476
-613.957
-42319.1
-628.227
-42158.8
-642.362
-41994.9
-656.362
-41827.6
-670.227
-41656.9
-683.957
-41482.7
-697.551
-41305.2
-711.009
-41124.4
-724.33
-40940.3
-737.516
-40753
-750.565
-40562.4
-763.478
-40368.7
-776.254
-40171.8
-788.894
-39971.7
-801.397
-39768.6
-813.764
-39562.5
-825.995
-39353.3
-838.09
-39141.1
-850.049
-38926
-861.872
-38708
-873.56
-38487.1
-885.113
-38263.4
-896.53
-38036.8
-907.813
-37807.5
-918.962
-37575.4
-929.976
-37340.6
-940.857
-37103.1
-951.605
-36863
-962.22
-36620.3
-972.703
-36375
-983.054
-36127.1
-993.274
-35876.7
-1003.36
-35623.9
-1013.32
-35368.6
-1023.15
-35110.8
-1032.85
-34850.7
-1042.42
-34588.3
-1051.87
-34323.5
-1061.18
-34056.4
-1070.37
-33787.1
-1079.43
-33515.5
-1088.37
-33241.7
-1097.18
-32965.8
-1105.87
-32687.7
-1114.44
-32407.6
-1122.88
-32125.3
-1131.21
-31841.1
-1139.41
-31554.8
-1147.49
-31266.5
-1155.45
-30976.3
-1163.29
-30684.1
-1171.01
-30390.1
-1178.62
-30094.1
-1186.11
-29796.4
-1193.48
-29496.8
-1200.74
-29195.5
-1207.89
-28892.4
-1214.92
-28587.6
-1221.84
-28281
-1228.65
-27972.9
-1235.35
-27663
-1241.94
-27351.6
-1248.41
-27038.6
-1254.79
-26724
-1261.05
-26407.9
-1267.2
-26090.3
-1273.26
-25771.1
-1279.2
-25450.6
-1285.04
-25128.6
-1290.78
-24805.2
-1296.42
-24480.4
-1301.95
-24154.3
-1307.39
-23826.9
-1312.72
-23498.1
-1317.96
-23168.1
-1323.09
-22836.8
-1328.13
-22504.3
-1333.07
-22170.5
-1337.92
-21835.6
-1342.67
-21499.5
-1347.33
-21162.3
-1351.89
-20824
-1356.36
-20484.6
-1360.74
-20144.1
-1365.03
-19802.6
-1369.23
-19460.1
-1373.33
-19116.5
-1377.35
-18772
-1381.28
-18426.5
-1385.13
-18080.1
-1388.88
-17732.8
-1392.55
-17384.6
-1396.14
-17035.5
-1399.64
-16685.5
-1403.05
-16334.8
-1406.39
-15983.2
-1409.64
-15630.8
-1412.81
-15277.7
-1415.89
-14923.8
-1418.9
-14569.2
-1421.82
-14213.9
-1424.67
-13857.9
-1427.44
-13501.2
-1430.13
-13143.9
-1432.74
-12785.9
-1435.27
-12427.3
-1437.73
-12068.2
-1440.11
-11708.4
-1442.42
-11348.1
-1444.65
-10987.3
-1446.8
-10626
-1448.89
-10264.1
-1450.9
-9901.8
-1452.83
-9539.01
-1454.7
-9175.78
-1456.49
-8812.11
-1458.21
-8448.04
-1459.86
-8083.57
-1461.44
-7718.72
-1462.95
-7353.52
-1464.39
-6987.98
-1465.76
-6622.11
-1467.07
-6255.94
-1468.3
-5889.47
-1469.47
-5522.73
-1470.57
-5155.73
-1471.61
-4788.49
-1472.58
-4421.03
-1473.48
-4053.36
-1474.32
-3685.49
-1475.09
-3317.45
-1475.79
-2949.26
-1476.43
-2580.92
-1477
-2212.45
-1477.5
-1843.88
-1477.94
-1475.22
-1478.3
-1106.48
-1478.6
-737.689
-1478.82
-368.857
-1478.98
-1479.07
-775.134
4088.5
-1533.91
3986.84
-2262.27
3792.73
-2950.86
3539.43
-3595.64
3265.47
-4197.75
3004.87
-4762.19
2781.88
-5296.15
2608.42
-5807.4
2485.83
-6303.08
2407.96
-6789.05
2365.07
-7269.65
2346.77
-7747.8
2343.98
-8225.32
2349.75
-8703.16
2359.31
-9181.76
2369.69
-9661.19
2379.27
-10141.4
2387.27
-10622.1
2393.43
-11103.2
2397.75
-11584.3
2400.36
-12065.4
2401.41
-12546.1
2401.07
-13026.3
2399.49
-13505.7
2396.8
-13984.3
2393.1
-14461.8
2388.5
-14938.2
2383.07
-15413.2
2376.87
-15886.8
2369.97
-16358.9
2362.42
-16829.2
2354.25
-17297.8
2345.5
-17764.4
2336.21
-18229.1
2326.39
-18691.7
2316.09
-19152.1
2305.3
-19610.2
2294.07
-20066
2282.4
-20519.3
2270.31
-20970.2
2257.81
-21418.4
2244.91
-21864
2231.64
-22306.9
2217.99
-22746.9
2203.98
-23184.1
2189.62
-23618.3
2174.92
-24049.5
2159.88
-24477.6
2144.51
-24902.6
2128.82
-25324.4
2112.82
-25742.9
2096.51
-26158.2
2079.9
-26570
2063
-26978.4
2045.81
-27383.3
2028.34
-27784.6
2010.6
-28182.4
1992.58
-28576.5
1974.3
-28966.8
1955.77
-29353.5
1936.97
-29736.3
1917.93
-30115.3
1898.65
-30490.4
1879.13
-30861.5
1859.38
-31228.6
1839.4
-31591.7
1819.19
-31950.7
1798.78
-32305.6
1778.14
-32656.4
1757.31
-33002.9
1736.26
-33345.2
1715.03
-33683.2
1693.6
-34016.9
1671.98
-34346.2
1650.18
-34671.1
1628.21
-34991.7
1606.06
-35307.7
1583.75
-35619.3
1561.27
-35926.3
1538.64
-36228.8
1515.86
-36526.8
1492.92
-36820.1
1469.85
-37108.8
1446.64
-37392.8
1423.29
-37672.1
1399.82
-37946.7
1376.23
-38216.6
1352.51
-38481.7
1328.69
-38742
1304.76
-38997.6
1280.72
-39248.3
1256.59
-39494.2
1232.36
-39735.2
1208.04
-39971.3
1183.64
-40202.6
1159.17
-40428.9
1134.61
-40650.4
1109.99
-40866.9
1085.31
-41078.5
1060.56
-41285.1
1035.76
-41486.7
1010.91
-41683.4
986.009
-41875.1
961.07
-42061.8
936.094
-42243.6
911.087
-42420.3
886.052
-42592
860.993
-42758.7
835.917
-42920.4
810.826
-43077.1
785.726
-43228.8
760.62
-43375.4
735.514
-43517.1
710.411
-43653.7
685.315
-43785.4
660.231
-43912
635.163
-44033.6
610.115
-44150.3
585.092
-44261.9
560.097
-44368.6
535.133
-44470.2
510.207
-44567
485.32
-44658.7
460.477
-44745.5
435.682
-44827.4
410.938
-44904.3
386.25
-44976.3
361.62
-45043.4
337.053
-45105.7
312.552
-45163
288.12
-45215.5
263.762
-45263.1
239.479
-45305.9
215.276
-45343.9
191.156
-45377.1
167.122
-45405.5
143.178
-45429.2
119.325
-45448.1
95.568
-45462.3
71.9092
-45471.8
48.3516
-45476.6
24.8981
-45476.7
1.55138
-45472.2
-21.6857
-45463.1
-44.8106
-45449.4
-67.8207
-45431.2
-90.7134
-45408.4
-113.486
-45381
-136.137
-45349.2
-158.663
-45312.9
-181.062
-45272.2
-203.331
-45227
-225.47
-45177.5
-247.475
-45123.5
-269.345
-45065.3
-291.077
-45002.7
-312.67
-44935.9
-334.121
-44864.8
-355.43
-44789.5
-376.593
-44710
-397.611
-44626.3
-418.48
-44538.5
-439.199
-44446.6
-459.768
-44350.6
-480.184
-44250.6
-500.446
-44146.6
-520.553
-44038.6
-540.503
-43926.6
-560.296
-43810.7
-579.93
-43691
-599.404
-43567.3
-618.717
-43439.9
-637.868
-43308.7
-656.856
-43173.7
-675.681
-43035
-694.341
-42892.6
-712.836
-42746.6
-731.165
-42596.9
-749.328
-42443.6
-767.323
-42286.8
-785.151
-42126.5
-802.81
-41962.7
-820.301
-41795.4
-837.623
-41624.7
-854.775
-41450.6
-871.758
-41273.2
-888.571
-41092.4
-905.213
-40908.4
-921.686
-40721.1
-937.987
-40530.6
-954.119
-40336.9
-970.08
-40140.1
-985.87
-39940.1
-1001.49
-39737.1
-1016.94
-39531
-1032.22
-39322
-1047.33
-39109.9
-1062.27
-38894.9
-1077.04
-38677
-1091.64
-38456.2
-1106.07
-38232.5
-1120.33
-38006.1
-1134.43
-37776.8
-1148.35
-37544.9
-1162.11
-37310.2
-1175.71
-37072.9
-1189.13
-36832.9
-1202.39
-36590.3
-1215.49
-36345.1
-1228.42
-36097.4
-1241.18
-35847.1
-1253.79
-35594.4
-1266.23
-35339.2
-1278.5
-35081.7
-1290.62
-34821.7
-1302.58
-34559.4
-1314.37
-34294.8
-1326.01
-34027.9
-1337.49
-33758.7
-1348.81
-33487.3
-1359.97
-33213.7
-1370.98
-32938
-1381.84
-32660.1
-1392.54
-32380.1
-1403.08
-32098.1
-1413.48
-31814
-1423.72
-31527.9
-1433.81
-31239.8
-1443.76
-30949.7
-1453.55
-30657.8
-1463.2
-30363.9
-1472.7
-30068.2
-1482.06
-29770.7
-1491.27
-29471.3
-1500.33
-29170.2
-1509.26
-28867.3
-1518.04
-28562.8
-1526.69
-28256.5
-1535.19
-27948.5
-1543.56
-27638.9
-1551.78
-27327.7
-1559.88
-27014.9
-1567.83
-26700.6
-1575.66
-26384.7
-1583.35
-26067.3
-1590.9
-25748.5
-1598.33
-25428.2
-1605.63
-25106.4
-1612.79
-24783.3
-1619.83
-24458.8
-1626.75
-24132.9
-1633.53
-23805.7
-1640.19
-23477.2
-1646.73
-23147.4
-1653.15
-22816.4
-1659.44
-22484.2
-1665.61
-22150.7
-1671.67
-21816.1
-1677.6
-21480.3
-1683.42
-21143.4
-1689.12
-20805.3
-1694.7
-20466.2
-1700.17
-20126
-1705.52
-19784.8
-1710.77
-19442.5
-1715.9
-19099.3
-1720.91
-18755
-1725.82
-18409.9
-1730.62
-18063.7
-1735.31
-17716.7
-1739.9
-17368.8
-1744.37
-17020
-1748.75
-16670.4
-1753.01
-16319.9
-1757.17
-15968.6
-1761.23
-15616.6
-1765.19
-15263.8
-1769.05
-14910.2
-1772.8
-14555.9
-1776.45
-14200.9
-1780.01
-13845.2
-1783.46
-13488.8
-1786.82
-13131.8
-1790.08
-12774.2
-1793.25
-12415.9
-1796.32
-12057.1
-1799.29
-11697.7
-1802.17
-11337.7
-1804.96
-10977.2
-1807.65
-10616.2
-1810.25
-10254.7
-1812.76
-9892.68
-1815.18
-9530.22
-1817.51
-9167.31
-1819.74
-8803.98
-1821.89
-8440.24
-1823.95
-8076.1
-1825.93
-7711.59
-1827.81
-7346.73
-1829.61
-6981.52
-1831.33
-6615.99
-1832.95
-6250.15
-1834.5
-5884.02
-1835.96
-5517.62
-1837.33
-5150.96
-1838.63
-4784.06
-1839.84
-4416.93
-1840.96
-4049.6
-1842.01
-3682.08
-1842.97
-3314.38
-1843.85
-2946.52
-1844.64
-2578.53
-1845.36
-2210.4
-1845.98
-1842.17
-1846.53
-1473.85
-1846.98
-1105.46
-1847.35
-737.003
-1847.64
-368.512
-1847.83
-1847.94
-752.499
4841.22
-1490.7
4725.26
-2202.7
4504.96
-2880.36
4217.32
-3519.84
3905.2
-4121.68
3606.96
-4689.71
3350.16
-5229.79
3148.75
-5748.45
3004.75
-6251.87
2911.63
-6745.23
2858.69
-7232.49
2834.28
-7716.42
2828.17
-8198.81
2832.39
-8680.68
2841.43
-9162.57
2851.83
-9644.69
2861.63
-10127
2869.87
-10609.5
2876.17
-11092
2880.49
-11574.4
2882.93
-12056.3
2883.64
-12537.8
2882.78
-13018.6
2880.52
-13498.5
2876.99
-13977.5
2872.31
-14455.4
2866.59
-14931.9
2859.9
-15407.2
2852.33
-15880.9
2843.93
-16353
2834.76
-16823.4
2824.87
-17291.9
2814.3
-17758.6
2803.08
-18223.2
2791.25
-18685.7
2778.83
-19146.1
2765.85
-19604.1
2752.33
-20059.8
2738.3
-20513
2723.76
-20963.7
2708.74
-21411.8
2693.24
-21857.3
2677.29
-22300
2660.9
-22739.8
2644.07
-23176.8
2626.83
-23610.9
2609.17
-24041.9
2591.11
-24469.9
2572.66
-24894.7
2553.83
-25316.3
2534.62
-25734.6
2515.04
-26149.6
2495.11
-26561.2
2474.82
-26969.4
2454.19
-27374.1
2433.22
-27775.2
2411.93
-28172.8
2390.31
-28566.7
2368.37
-28956.8
2346.12
-29343.3
2323.57
-29725.9
2300.72
-30104.6
2277.58
-30479.5
2254.16
-30850.4
2230.45
-31217.3
2206.48
-31580.2
2182.24
-31939
2157.73
-32293.7
2132.98
-32644.2
2107.97
-32990.5
2082.73
-33332.5
2057.24
-33670.3
2031.53
-34003.8
2005.59
-34332.9
1979.44
-34657.6
1953.07
-34977.9
1926.5
-35293.7
1899.73
-35605.1
1872.76
-35911.9
1845.6
-36214.2
1818.26
-36511.9
1790.75
-36805
1763.06
-37093.4
1735.21
-37377.2
1707.2
-37656.3
1679.04
-37930.7
1650.73
-38200.4