/*--------------------------------*- C++ -*----------------------------------*\
| =========                 |                                                 |
| \\      /  F ield         | OpenFOAM: The Open Source CFD Toolbox           |
|  \\    /   O peration     | Version:  2212                                  |
|   \\  /    A nd           | Website:  www.openfoam.com                      |
|    \\/     M anipulation  |                                                 |
\*---------------------------------------------------------------------------*/
FoamFile
{
    version     2.0;
    format      ascii;
    arch        "LSB;label=32;scalar=64";
    class       volScalarField;
    location    "850";
    object      p_rgh;
}
// * * * * * * * * * * * * * * * * * * * * * * * * * * * * * * * * * * * * * //

dimensions      [1 -1 -2 0 0 0 0];

internalField   nonuniform List<scalar> 
204800
(
51.3017
51.2994
51.2963
51.2921
51.2858
51.2777
51.2674
51.2551
51.2406
51.2242
51.2057
51.1853
51.1631
51.1391
51.1133
51.0859
51.0567
51.0259
50.9935
50.9594
50.9238
50.8865
50.8477
50.8074
50.7655
50.7221
50.6772
50.6308
50.5829
50.5336
50.4828
50.4307
50.3772
50.3223
50.266
50.2085
50.1497
50.0896
50.0282
49.9657
49.9019
49.8369
49.7708
49.7036
49.6353
49.5659
49.4954
49.424
49.3515
49.2781
49.2038
49.1285
49.0523
48.9754
48.8975
48.8189
48.7395
48.6594
48.5786
48.497
48.4149
48.3321
48.2487
48.1647
48.0802
47.9952
47.9097
47.8238
47.7374
47.6507
47.5636
47.4761
47.3884
47.3004
47.2121
47.1237
47.035
46.9462
46.8572
46.7681
46.679
46.5898
46.5006
46.4114
46.3222
46.2331
46.144
46.0551
45.9663
45.8777
45.7892
45.701
45.613
45.5253
45.4379
45.3507
45.2639
45.1775
45.0914
45.0057
44.9204
44.8356
44.7512
44.6673
44.5839
44.5011
44.4187
44.3369
44.2557
44.1751
44.0951
44.0157
43.937
43.8589
43.7815
43.7048
43.6288
43.5535
43.4789
43.4051
43.332
43.2597
43.1882
43.1175
43.0476
42.9785
42.9102
42.8427
42.7761
42.7103
42.6454
42.5814
42.5182
42.4559
42.3945
42.3339
42.2743
42.2155
42.1577
42.1008
42.0447
41.9896
41.9354
41.8821
41.8298
41.7783
41.7278
41.6782
41.6295
41.5818
41.535
41.489
41.444
41.4
41.3568
41.3146
41.2732
41.2328
41.1933
41.1546
41.1169
41.0801
41.0441
41.0091
40.9749
40.9416
40.9091
40.8775
40.8468
40.8169
40.7879
40.7597
40.7323
40.7058
40.6801
40.6551
40.631
40.6077
40.5851
40.5634
40.5423
40.5221
40.5026
40.4838
40.4658
40.4485
40.4319
40.416
40.4008
40.3863
40.3724
40.3592
40.3467
40.3348
40.3236
40.3129
40.3029
40.2935
40.2847
40.2764
40.2688
40.2617
40.2551
40.2491
40.2436
40.2387
40.2342
40.2302
40.2268
40.2238
40.2212
40.2192
40.2175
40.2163
40.2156
40.2152
40.2153
40.2157
40.2165
40.2177
40.2192
40.2211
40.2234
40.2259
40.2288
40.232
40.2355
40.2393
40.2434
40.2477
40.2523
40.2571
40.2622
40.2675
40.2731
40.2788
40.2848
40.2909
40.2972
40.3037
40.3104
40.3172
40.3242
40.3313
40.3385
40.3459
40.3533
40.3609
40.3686
40.3763
40.3842
40.3921
40.4001
40.4081
40.4162
40.4243
40.4325
40.4407
40.4489
40.4571
40.4653
40.4735
40.4817
40.4899
40.4981
40.5062
40.5143
40.5224
40.5304
40.5384
40.5463
40.5541
40.5619
40.5696
40.5772
40.5847
40.5921
40.5995
40.6067
40.6138
40.6209
40.6278
40.6345
40.6412
40.6477
40.6541
40.6603
40.6664
40.6724
40.6782
40.6839
40.6894
40.6947
40.6999
40.705
40.7098
40.7145
40.719
40.7233
40.7275
40.7314
40.7352
40.7388
40.7422
40.7455
40.7485
40.7513
40.7539
40.7564
40.7586
40.7607
40.7625
40.7642
40.7656
40.7668
40.7679
40.7687
40.7693
40.7697
40.7699
51.2159
51.2136
51.2092
51.2029
51.1944
51.1841
51.172
51.1582
51.1426
51.1253
51.1062
51.0855
51.063
51.0389
51.013
50.9855
50.9564
50.9256
50.8932
50.8592
50.8236
50.7864
50.7476
50.7073
50.6655
50.6222
50.5773
50.531
50.4832
50.434
50.3833
50.3313
50.2778
50.223
50.1669
50.1095
50.0507
49.9908
49.9295
49.8671
49.8034
49.7386
49.6726
49.6055
49.5373
49.468
49.3977
49.3263
49.254
49.1807
49.1065
49.0314
48.9554
48.8785
48.8009
48.7224
48.6431
48.5631
48.4825
48.4011
48.3191
48.2364
48.1532
48.0693
47.985
47.9001
47.8148
47.729
47.6428
47.5563
47.4693
47.382
47.2945
47.2066
47.1185
47.0302
46.9417
46.853
46.7642
46.6753
46.5863
46.4973
46.4083
46.3192
46.2302
46.1412
46.0524
45.9636
45.875
45.7865
45.6982
45.6102
45.5223
45.4348
45.3475
45.2605
45.1739
45.0876
45.0017
44.9161
44.831
44.7463
44.6621
44.5784
44.4951
44.4124
44.3302
44.2486
44.1675
44.0871
44.0072
43.928
43.8494
43.7714
43.6942
43.6176
43.5417
43.4666
43.3922
43.3185
43.2456
43.1734
43.102
43.0314
42.9616
42.8927
42.8245
42.7572
42.6907
42.625
42.5603
42.4963
42.4333
42.3711
42.3098
42.2494
42.1898
42.1312
42.0735
42.0166
41.9607
41.9057
41.8516
41.7984
41.7462
41.6948
41.6444
41.5949
41.5463
41.4987
41.4519
41.4061
41.3612
41.3172
41.2741
41.232
41.1907
41.1504
41.1109
41.0724
41.0347
40.9979
40.9621
40.9271
40.893
40.8597
40.8273
40.7958
40.7652
40.7353
40.7064
40.6782
40.6509
40.6244
40.5987
40.5739
40.5498
40.5265
40.504
40.4823
40.4613
40.4411
40.4216
40.4029
40.3849
40.3676
40.3511
40.3352
40.32
40.3056
40.2917
40.2786
40.2661
40.2542
40.243
40.2324
40.2224
40.213
40.2042
40.196
40.1883
40.1813
40.1747
40.1687
40.1633
40.1583
40.1539
40.1499
40.1465
40.1435
40.1409
40.1389
40.1373
40.1361
40.1353
40.1349
40.135
40.1354
40.1363
40.1374
40.139
40.1409
40.1431
40.1457
40.1486
40.1518
40.1553
40.159
40.1631
40.1674
40.172
40.1769
40.1819
40.1872
40.1928
40.1985
40.2044
40.2106
40.2169
40.2234
40.23
40.2368
40.2438
40.2509
40.2581
40.2655
40.2729
40.2805
40.2882
40.2959
40.3037
40.3116
40.3196
40.3276
40.3357
40.3438
40.3519
40.3601
40.3683
40.3765
40.3847
40.3929
40.4011
40.4093
40.4175
40.4256
40.4337
40.4417
40.4497
40.4577
40.4656
40.4734
40.4812
40.4888
40.4964
40.5039
40.5114
40.5187
40.5259
40.533
40.54
40.5469
40.5537
40.5603
40.5668
40.5732
40.5794
40.5855
40.5915
40.5973
40.6029
40.6084
40.6138
40.619
40.624
40.6288
40.6335
40.638
40.6423
40.6465
40.6504
40.6542
40.6578
40.6612
40.6644
40.6674
40.6703
40.6729
40.6753
40.6776
40.6796
40.6814
40.6831
40.6845
40.6857
40.6868
40.6876
40.6882
40.6886
40.6888
51.1975
51.1954
51.191
51.1846
51.1761
51.1659
51.1537
51.1399
51.1243
51.107
51.0879
51.0671
51.0446
51.0204
50.9946
50.967
50.9379
50.907
50.8746
50.8406
50.8049
50.7677
50.729
50.6887
50.6468
50.6035
50.5586
50.5123
50.4645
50.4153
50.3646
50.3125
50.2591
50.2043
50.1482
50.0907
50.032
49.972
49.9108
49.8483
49.7846
49.7198
49.6538
49.5867
49.5185
49.4492
49.3789
49.3076
49.2353
49.162
49.0878
49.0126
48.9366
48.8598
48.7821
48.7036
48.6244
48.5444
48.4637
48.3824
48.3003
48.2177
48.1344
48.0506
47.9663
47.8814
47.7961
47.7103
47.6242
47.5376
47.4506
47.3634
47.2758
47.188
47.0999
47.0116
46.9231
46.8344
46.7456
46.6567
46.5677
46.4787
46.3897
46.3006
46.2116
46.1227
46.0338
45.945
45.8564
45.768
45.6797
45.5917
45.5038
45.4163
45.329
45.2421
45.1554
45.0691
44.9832
44.8977
44.8126
44.7279
44.6437
44.56
44.4768
44.3941
44.3119
44.2303
44.1492
44.0688
43.9889
43.9097
43.8311
43.7532
43.676
43.5994
43.5236
43.4484
43.374
43.3003
43.2274
43.1553
43.0839
43.0133
42.9436
42.8746
42.8065
42.7392
42.6727
42.6071
42.5423
42.4784
42.4153
42.3532
42.2919
42.2315
42.172
42.1134
42.0556
41.9988
41.9429
41.8879
41.8339
41.7807
41.7285
41.6771
41.6267
41.5772
41.5287
41.481
41.4343
41.3885
41.3436
41.2996
41.2566
41.2144
41.1732
41.1329
41.0934
41.0549
41.0173
40.9805
40.9447
40.9097
40.8756
40.8424
40.81
40.7785
40.7479
40.7181
40.6891
40.661
40.6337
40.6072
40.5815
40.5567
40.5326
40.5094
40.4869
40.4652
40.4442
40.424
40.4046
40.3859
40.3679
40.3506
40.3341
40.3182
40.3031
40.2886
40.2748
40.2617
40.2492
40.2373
40.2261
40.2155
40.2056
40.1962
40.1874
40.1792
40.1716
40.1645
40.158
40.152
40.1465
40.1416
40.1372
40.1332
40.1298
40.1268
40.1243
40.1222
40.1206
40.1195
40.1187
40.1184
40.1184
40.1189
40.1197
40.1209
40.1225
40.1244
40.1266
40.1292
40.1321
40.1353
40.1388
40.1426
40.1467
40.151
40.1556
40.1605
40.1655
40.1709
40.1764
40.1821
40.1881
40.1942
40.2005
40.207
40.2137
40.2205
40.2275
40.2346
40.2418
40.2492
40.2566
40.2642
40.2719
40.2796
40.2875
40.2954
40.3034
40.3114
40.3195
40.3276
40.3357
40.3439
40.3521
40.3603
40.3685
40.3767
40.3849
40.3931
40.4013
40.4094
40.4175
40.4256
40.4336
40.4415
40.4494
40.4573
40.465
40.4727
40.4803
40.4878
40.4953
40.5026
40.5098
40.5169
40.5239
40.5308
40.5376
40.5442
40.5507
40.5571
40.5634
40.5695
40.5754
40.5812
40.5869
40.5924
40.5977
40.6029
40.6079
40.6128
40.6174
40.6219
40.6263
40.6304
40.6344
40.6382
40.6417
40.6452
40.6484
40.6514
40.6542
40.6569
40.6593
40.6615
40.6636
40.6654
40.667
40.6685
40.6697
40.6707
40.6716
40.6722
40.6726
40.6728
51.1216
51.1192
51.1141
51.1068
51.0973
51.086
51.073
51.0583
51.042
51.0241
51.0045
50.9834
50.9606
50.9362
50.9102
50.8826
50.8533
50.8225
50.79
50.756
50.7203
50.6831
50.6444
50.6041
50.5623
50.5189
50.4741
50.4278
50.3801
50.3309
50.2803
50.2282
50.1749
50.1201
50.064
50.0067
49.948
49.8881
49.8269
49.7645
49.7009
49.6361
49.5702
49.5032
49.4351
49.3659
49.2957
49.2244
49.1522
49.079
49.0048
48.9298
48.8539
48.7771
48.6995
48.6212
48.542
48.4621
48.3815
48.3003
48.2183
48.1358
48.0526
47.9689
47.8847
47.8
47.7147
47.6291
47.543
47.4565
47.3697
47.2825
47.1951
47.1073
47.0193
46.9311
46.8428
46.7542
46.6655
46.5767
46.4879
46.399
46.31
46.2211
46.1322
46.0434
45.9546
45.866
45.7775
45.6891
45.601
45.513
45.4253
45.3379
45.2507
45.1639
45.0774
44.9912
44.9054
44.82
44.735
44.6505
44.5664
44.4828
44.3996
44.317
44.235
44.1535
44.0725
43.9922
43.9124
43.8333
43.7549
43.677
43.5999
43.5234
43.4477
43.3727
43.2984
43.2248
43.152
43.0799
43.0087
42.9382
42.8685
42.7997
42.7316
42.6644
42.598
42.5325
42.4678
42.404
42.3411
42.279
42.2178
42.1575
42.0981
42.0395
41.9819
41.9252
41.8694
41.8145
41.7605
41.7074
41.6552
41.604
41.5537
41.5043
41.4558
41.4082
41.3616
41.3158
41.271
41.2271
41.1841
41.142
41.1009
41.0606
41.0212
40.9828
40.9452
40.9085
40.8727
40.8378
40.8038
40.7706
40.7383
40.7069
40.6763
40.6465
40.6176
40.5896
40.5623
40.5359
40.5103
40.4855
40.4615
40.4383
40.4158
40.3941
40.3732
40.3531
40.3337
40.315
40.2971
40.2799
40.2634
40.2475
40.2324
40.218
40.2042
40.1911
40.1787
40.1669
40.1557
40.1451
40.1352
40.1258
40.1171
40.1089
40.1013
40.0942
40.0877
40.0818
40.0763
40.0714
40.067
40.0631
40.0597
40.0567
40.0542
40.0522
40.0506
40.0494
40.0487
40.0484
40.0484
40.0489
40.0497
40.051
40.0525
40.0544
40.0567
40.0593
40.0622
40.0654
40.0689
40.0727
40.0768
40.0811
40.0857
40.0906
40.0957
40.101
40.1065
40.1123
40.1182
40.1244
40.1307
40.1372
40.1439
40.1507
40.1576
40.1648
40.172
40.1793
40.1868
40.1944
40.202
40.2098
40.2176
40.2255
40.2335
40.2415
40.2496
40.2577
40.2659
40.274
40.2822
40.2904
40.2987
40.3069
40.3151
40.3232
40.3314
40.3395
40.3476
40.3557
40.3637
40.3716
40.3795
40.3873
40.3951
40.4028
40.4104
40.4179
40.4253
40.4326
40.4398
40.4469
40.4539
40.4608
40.4676
40.4742
40.4807
40.4871
40.4934
40.4995
40.5054
40.5112
40.5169
40.5224
40.5277
40.5329
40.5379
40.5427
40.5474
40.5519
40.5562
40.5604
40.5643
40.5681
40.5717
40.5751
40.5783
40.5813
40.5841
40.5868
40.5892
40.5914
40.5935
40.5953
40.597
40.5984
40.5996
40.6006
40.6015
40.6021
40.6025
40.6027
51.0916
51.0891
51.0841
51.0769
51.0675
51.0563
51.0433
51.0287
51.0124
50.9945
50.9749
50.9537
50.9309
50.9065
50.8804
50.8527
50.8234
50.7925
50.76
50.7259
50.6902
50.653
50.6142
50.5739
50.5321
50.4887
50.4439
50.3975
50.3498
50.3005
50.2499
50.1979
50.1445
50.0897
50.0336
49.9762
49.9176
49.8576
49.7964
49.734
49.6704
49.6057
49.5397
49.4727
49.4046
49.3354
49.2651
49.1939
49.1216
49.0484
48.9743
48.8992
48.8233
48.7466
48.669
48.5906
48.5114
48.4315
48.3509
48.2697
48.1877
48.1052
48.022
47.9383
47.8541
47.7693
47.6841
47.5985
47.5124
47.4259
47.3391
47.2519
47.1644
47.0767
46.9887
46.9005
46.8121
46.7236
46.6349
46.5461
46.4573
46.3684
46.2794
46.1905
46.1016
46.0128
45.924
45.8354
45.7469
45.6586
45.5704
45.4825
45.3948
45.3074
45.2202
45.1334
45.0469
44.9607
44.8749
44.7896
44.7046
44.62
44.536
44.4524
44.3692
44.2867
44.2046
44.1231
44.0422
43.9619
43.8821
43.803
43.7246
43.6468
43.5697
43.4932
43.4175
43.3425
43.2682
43.1947
43.1219
43.0499
42.9786
42.9082
42.8385
42.7697
42.7017
42.6345
42.5681
42.5026
42.4379
42.3742
42.3112
42.2492
42.188
42.1277
42.0683
42.0098
41.9522
41.8955
41.8397
41.7849
41.7309
41.6778
41.6257
41.5745
41.5242
41.4748
41.4264
41.3788
41.3322
41.2865
41.2417
41.1978
41.1549
41.1128
41.0717
41.0315
40.9921
40.9537
40.9162
40.8795
40.8437
40.8089
40.7748
40.7417
40.7094
40.678
40.6475
40.6178
40.5889
40.5608
40.5336
40.5072
40.4817
40.4569
40.4329
40.4097
40.3873
40.3657
40.3448
40.3247
40.3053
40.2866
40.2687
40.2515
40.2351
40.2193
40.2042
40.1898
40.176
40.163
40.1505
40.1388
40.1276
40.1171
40.1072
40.0978
40.0891
40.081
40.0734
40.0664
40.0599
40.0539
40.0485
40.0436
40.0393
40.0354
40.032
40.029
40.0266
40.0246
40.023
40.0219
40.0211
40.0208
40.0209
40.0214
40.0223
40.0235
40.0251
40.0271
40.0293
40.0319
40.0349
40.0381
40.0416
40.0455
40.0495
40.0539
40.0585
40.0634
40.0685
40.0738
40.0794
40.0852
40.0911
40.0973
40.1036
40.1102
40.1168
40.1237
40.1307
40.1378
40.145
40.1524
40.1599
40.1675
40.1751
40.1829
40.1908
40.1987
40.2067
40.2147
40.2228
40.2309
40.2391
40.2473
40.2555
40.2637
40.2719
40.2801
40.2883
40.2965
40.3047
40.3128
40.3209
40.329
40.337
40.345
40.3529
40.3607
40.3685
40.3762
40.3838
40.3913
40.3987
40.406
40.4133
40.4204
40.4274
40.4343
40.4411
40.4477
40.4542
40.4606
40.4668
40.4729
40.4789
40.4847
40.4904
40.4959
40.5012
40.5064
40.5114
40.5163
40.5209
40.5254
40.5298
40.5339
40.5379
40.5416
40.5452
40.5486
40.5519
40.5549
40.5577
40.5603
40.5628
40.565
40.5671
40.5689
40.5705
40.572
40.5732
40.5742
40.5751
40.5757
40.5761
40.5763
51.0223
51.0197
51.0144
51.0069
50.9972
50.9856
50.9721
50.9571
50.9403
50.9221
50.9022
50.8807
50.8577
50.8331
50.8069
50.7791
50.7496
50.7187
50.6861
50.6519
50.6162
50.5789
50.5401
50.4998
50.4579
50.4146
50.3697
50.3234
50.2756
50.2264
50.1758
50.1238
50.0704
50.0157
49.9596
49.9023
49.8436
49.7837
49.7225
49.6602
49.5966
49.5319
49.466
49.399
49.3309
49.2617
49.1915
49.1203
49.0481
48.9749
48.9009
48.8259
48.75
48.6733
48.5957
48.5174
48.4383
48.3585
48.2779
48.1967
48.1148
48.0323
47.9492
47.8656
47.7814
47.6967
47.6116
47.526
47.4399
47.3535
47.2668
47.1797
47.0923
47.0046
46.9167
46.8286
46.7402
46.6518
46.5632
46.4744
46.3856
46.2968
46.2079
46.1191
46.0303
45.9415
45.8528
45.7643
45.6759
45.5876
45.4995
45.4117
45.3241
45.2367
45.1496
45.0629
44.9764
44.8903
44.8046
44.7193
44.6344
44.5499
44.4659
44.3824
44.2994
44.2169
44.1349
44.0535
43.9726
43.8924
43.8127
43.7337
43.6553
43.5776
43.5006
43.4242
43.3486
43.2736
43.1994
43.1259
43.0532
42.9813
42.9101
42.8397
42.7702
42.7014
42.6335
42.5663
42.5001
42.4346
42.37
42.3063
42.2435
42.1815
42.1204
42.0602
42.0009
41.9424
41.8849
41.8283
41.7726
41.7177
41.6638
41.6109
41.5588
41.5077
41.4574
41.4081
41.3597
41.3122
41.2657
41.22
41.1753
41.1315
41.0886
41.0466
41.0056
40.9654
40.9261
40.8877
40.8503
40.8137
40.778
40.7431
40.7092
40.6761
40.6439
40.6125
40.582
40.5524
40.5236
40.4956
40.4684
40.4421
40.4165
40.3918
40.3679
40.3447
40.3224
40.3008
40.28
40.2599
40.2406
40.222
40.2041
40.1869
40.1705
40.1548
40.1397
40.1254
40.1117
40.0986
40.0862
40.0745
40.0634
40.0529
40.043
40.0337
40.025
40.0169
40.0094
40.0024
39.9959
39.99
39.9846
39.9798
39.9754
39.9716
39.9682
39.9653
39.9628
39.9609
39.9593
39.9582
39.9575
39.9572
39.9574
39.9579
39.9587
39.96
39.9616
39.9636
39.9659
39.9685
39.9715
39.9747
39.9783
39.9821
39.9862
39.9906
39.9952
40.0001
40.0052
40.0106
40.0162
40.0219
40.0279
40.0341
40.0404
40.047
40.0537
40.0605
40.0675
40.0746
40.0819
40.0893
40.0968
40.1044
40.1121
40.1198
40.1277
40.1356
40.1436
40.1517
40.1597
40.1679
40.176
40.1842
40.1924
40.2007
40.2089
40.2171
40.2253
40.2335
40.2417
40.2498
40.2579
40.266
40.274
40.282
40.2899
40.2977
40.3055
40.3132
40.3208
40.3283
40.3357
40.3431
40.3503
40.3574
40.3644
40.3713
40.3781
40.3847
40.3913
40.3976
40.4039
40.41
40.416
40.4218
40.4274
40.4329
40.4383
40.4434
40.4485
40.4533
40.458
40.4625
40.4668
40.471
40.4749
40.4787
40.4823
40.4857
40.4889
40.4919
40.4948
40.4974
40.4998
40.5021
40.5041
40.506
40.5076
40.509
40.5103
40.5113
40.5121
40.5127
40.5131
40.5133
50.9844
50.9819
50.9768
50.9694
50.9598
50.9483
50.935
50.92
50.9033
50.8851
50.8652
50.8437
50.8206
50.7959
50.7697
50.7418
50.7123
50.6813
50.6486
50.6144
50.5786
50.5413
50.5025
50.4621
50.4202
50.3768
50.3319
50.2855
50.2377
50.1885
50.1378
50.0858
50.0324
49.9776
49.9215
49.8641
49.8054
49.7455
49.6843
49.6219
49.5583
49.4936
49.4277
49.3606
49.2925
49.2233
49.1531
49.0819
49.0097
48.9365
48.8624
48.7874
48.7115
48.6347
48.5572
48.4788
48.3997
48.3199
48.2393
48.1581
48.0762
47.9937
47.9106
47.8269
47.7427
47.658
47.5728
47.4872
47.4012
47.3148
47.228
47.1409
47.0535
46.9658
46.8779
46.7897
46.7014
46.6129
46.5243
46.4356
46.3468
46.2579
46.169
46.0802
45.9914
45.9026
45.8139
45.7253
45.6369
45.5487
45.4606
45.3727
45.2851
45.1978
45.1107
45.0239
44.9375
44.8514
44.7657
44.6804
44.5955
44.511
44.427
44.3435
44.2605
44.178
44.096
44.0146
43.9338
43.8535
43.7739
43.6949
43.6165
43.5388
43.4618
43.3855
43.3098
43.2349
43.1607
43.0873
43.0146
42.9426
42.8715
42.8011
42.7316
42.6628
42.5949
42.5278
42.4616
42.3962
42.3316
42.2679
42.2051
42.1431
42.0821
42.0219
41.9626
41.9042
41.8467
41.7901
41.7344
41.6796
41.6258
41.5728
41.5208
41.4697
41.4195
41.3702
41.3218
41.2744
41.2279
41.1823
41.1376
41.0938
41.051
41.009
40.968
40.9278
40.8886
40.8503
40.8128
40.7763
40.7406
40.7058
40.6719
40.6389
40.6067
40.5754
40.5449
40.5153
40.4865
40.4586
40.4314
40.4051
40.3796
40.355
40.3311
40.308
40.2856
40.2641
40.2433
40.2233
40.204
40.1854
40.1676
40.1505
40.1341
40.1184
40.1034
40.0891
40.0754
40.0624
40.0501
40.0384
40.0273
40.0168
40.007
39.9977
39.9891
39.981
39.9735
39.9665
39.9601
39.9543
39.9489
39.9441
39.9398
39.936
39.9326
39.9297
39.9273
39.9254
39.9239
39.9228
39.9221
39.9219
39.9221
39.9226
39.9235
39.9248
39.9264
39.9284
39.9308
39.9334
39.9364
39.9397
39.9433
39.9471
39.9513
39.9557
39.9604
39.9653
39.9704
39.9758
39.9814
39.9872
39.9932
39.9994
40.0058
40.0123
40.0191
40.0259
40.0329
40.0401
40.0474
40.0548
40.0623
40.0699
40.0776
40.0854
40.0933
40.1013
40.1093
40.1173
40.1255
40.1336
40.1418
40.15
40.1582
40.1665
40.1747
40.183
40.1912
40.1994
40.2076
40.2157
40.2239
40.232
40.24
40.248
40.2559
40.2637
40.2715
40.2792
40.2868
40.2944
40.3018
40.3092
40.3164
40.3235
40.3305
40.3374
40.3442
40.3509
40.3574
40.3638
40.3701
40.3762
40.3821
40.388
40.3936
40.3991
40.4045
40.4097
40.4147
40.4196
40.4242
40.4287
40.4331
40.4372
40.4412
40.445
40.4486
40.452
40.4552
40.4582
40.4611
40.4637
40.4661
40.4684
40.4704
40.4723
40.4739
40.4753
40.4766
40.4776
40.4784
40.4791
40.4795
40.4797
50.9202
50.9177
50.9125
50.905
50.8953
50.8837
50.8702
50.855
50.8381
50.8197
50.7996
50.7779
50.7546
50.7298
50.7034
50.6754
50.6458
50.6147
50.5819
50.5477
50.5118
50.4744
50.4355
50.3951
50.3532
50.3097
50.2648
50.2184
50.1706
50.1214
50.0707
50.0186
49.9652
49.9104
49.8543
49.7969
49.7383
49.6783
49.6171
49.5547
49.4912
49.4264
49.3605
49.2935
49.2254
49.1562
49.086
49.0147
48.9425
48.8694
48.7953
48.7203
48.6444
48.5677
48.4901
48.4118
48.3327
48.2529
48.1723
48.0911
48.0092
47.9267
47.8437
47.76
47.6758
47.5912
47.506
47.4204
47.3344
47.248
47.1613
47.0742
46.9868
46.8991
46.8112
46.7231
46.6348
46.5464
46.4578
46.3691
46.2803
46.1915
46.1027
46.0138
45.9251
45.8363
45.7477
45.6592
45.5708
45.4826
45.3945
45.3067
45.2191
45.1318
45.0448
44.9581
44.8717
44.7856
44.7
44.6147
44.5298
44.4454
44.3615
44.278
44.195
44.1126
44.0306
43.9493
43.8685
43.7883
43.7087
43.6298
43.5514
43.4738
43.3968
43.3205
43.2449
43.1701
43.0959
43.0225
42.9499
42.878
42.8069
42.7366
42.6671
42.5984
42.5306
42.4635
42.3973
42.332
42.2675
42.2038
42.1411
42.0792
42.0182
41.958
41.8988
41.8405
41.783
41.7265
41.6709
41.6161
41.5623
41.5094
41.4575
41.4064
41.3563
41.3071
41.2588
41.2114
41.1649
41.1194
41.0747
41.031
40.9882
40.9463
40.9054
40.8653
40.8261
40.7878
40.7504
40.7139
40.6783
40.6436
40.6098
40.5768
40.5447
40.5134
40.483
40.4534
40.4247
40.3968
40.3697
40.3435
40.3181
40.2934
40.2696
40.2465
40.2243
40.2028
40.182
40.162
40.1428
40.1243
40.1065
40.0895
40.0731
40.0575
40.0425
40.0282
40.0146
40.0017
39.9894
39.9777
39.9667
39.9563
39.9465
39.9373
39.9286
39.9206
39.9131
39.9062
39.8999
39.894
39.8887
39.884
39.8797
39.8759
39.8726
39.8698
39.8674
39.8655
39.864
39.863
39.8623
39.8621
39.8623
39.8629
39.8639
39.8652
39.8669
39.8689
39.8712
39.8739
39.8769
39.8802
39.8839
39.8877
39.8919
39.8964
39.901
39.906
39.9112
39.9166
39.9222
39.928
39.9341
39.9403
39.9467
39.9533
39.96
39.9669
39.9739
39.9811
39.9884
39.9958
40.0034
40.011
40.0187
40.0265
40.0344
40.0424
40.0504
40.0585
40.0667
40.0748
40.083
40.0912
40.0995
40.1077
40.116
40.1243
40.1325
40.1407
40.1489
40.1571
40.1652
40.1733
40.1814
40.1894
40.1973
40.2051
40.2129
40.2206
40.2283
40.2358
40.2433
40.2506
40.2579
40.265
40.272
40.2789
40.2857
40.2924
40.2989
40.3053
40.3116
40.3177
40.3237
40.3295
40.3352
40.3407
40.3461
40.3513
40.3563
40.3611
40.3658
40.3703
40.3747
40.3788
40.3828
40.3866
40.3902
40.3936
40.3968
40.3998
40.4027
40.4053
40.4078
40.41
40.4121
40.4139
40.4155
40.417
40.4182
40.4192
40.4201
40.4207
40.4211
40.4213
50.8775
50.875
50.8699
50.8626
50.853
50.8416
50.8282
50.8131
50.7962
50.7778
50.7577
50.736
50.7127
50.6878
50.6614
50.6333
50.6037
50.5724
50.5396
50.5053
50.4694
50.432
50.393
50.3525
50.3105
50.267
50.222
50.1756
50.1277
50.0784
50.0277
49.9756
49.9221
49.8673
49.8112
49.7537
49.695
49.635
49.5738
49.5114
49.4477
49.3829
49.317
49.2499
49.1818
49.1126
49.0423
48.9711
48.8988
48.8256
48.7515
48.6764
48.6005
48.5238
48.4462
48.3678
48.2887
48.2088
48.1282
48.047
47.9651
47.8825
47.7994
47.7158
47.6315
47.5468
47.4617
47.376
47.29
47.2036
47.1168
47.0297
46.9423
46.8546
46.7667
46.6785
46.5902
46.5017
46.4131
46.3244
46.2356
46.1468
46.0579
45.9691
45.8802
45.7915
45.7028
45.6143
45.5259
45.4376
45.3496
45.2618
45.1742
45.0868
44.9998
44.9131
44.8267
44.7406
44.6549
44.5697
44.4848
44.4004
44.3164
44.233
44.15
44.0675
43.9856
43.9042
43.8235
43.7433
43.6637
43.5847
43.5064
43.4288
43.3518
43.2755
43.2
43.1251
43.051
42.9776
42.905
42.8331
42.762
42.6918
42.6223
42.5536
42.4858
42.4187
42.3526
42.2872
42.2228
42.1591
42.0964
42.0345
41.9736
41.9135
41.8542
41.7959
41.7385
41.682
41.6264
41.5717
41.518
41.4651
41.4132
41.3621
41.312
41.2629
41.2146
41.1673
41.1208
41.0753
41.0307
40.9871
40.9443
40.9025
40.8615
40.8215
40.7824
40.7441
40.7068
40.6703
40.6348
40.6001
40.5663
40.5333
40.5013
40.4701
40.4397
40.4102
40.3815
40.3537
40.3266
40.3004
40.2751
40.2505
40.2267
40.2037
40.1815
40.16
40.1393
40.1194
40.1002
40.0817
40.064
40.047
40.0307
40.0151
40.0002
39.986
39.9724
39.9595
39.9473
39.9356
39.9247
39.9143
39.9045
39.8954
39.8868
39.8788
39.8714
39.8646
39.8582
39.8525
39.8472
39.8425
39.8382
39.8345
39.8312
39.8285
39.8261
39.8243
39.8228
39.8218
39.8213
39.8211
39.8213
39.8219
39.8229
39.8243
39.826
39.8281
39.8305
39.8332
39.8363
39.8396
39.8433
39.8472
39.8514
39.8559
39.8606
39.8656
39.8708
39.8762
39.8819
39.8878
39.8938
39.9001
39.9065
39.9131
39.9199
39.9268
39.9339
39.9411
39.9485
39.9559
39.9635
39.9711
39.9789
39.9867
39.9947
40.0027
40.0107
40.0188
40.027
40.0352
40.0434
40.0517
40.0599
40.0682
40.0765
40.0848
40.093
40.1013
40.1095
40.1177
40.1259
40.134
40.142
40.1501
40.158
40.1659
40.1737
40.1814
40.1891
40.1966
40.2041
40.2115
40.2187
40.2259
40.2329
40.2399
40.2467
40.2533
40.2599
40.2663
40.2726
40.2787
40.2847
40.2905
40.2962
40.3017
40.3071
40.3123
40.3173
40.3222
40.3269
40.3314
40.3358
40.3399
40.3439
40.3477
40.3513
40.3547
40.358
40.361
40.3638
40.3665
40.3689
40.3712
40.3732
40.3751
40.3767
40.3782
40.3794
40.3804
40.3813
40.3819
40.3823
40.3825
50.8171
50.8146
50.8095
50.8022
50.7927
50.7812
50.7677
50.7526
50.7356
50.7171
50.6969
50.6751
50.6516
50.6266
50.6001
50.5719
50.5421
50.5108
50.478
50.4435
50.4075
50.37
50.331
50.2905
50.2484
50.2049
50.1598
50.1134
50.0654
50.0161
49.9653
49.9132
49.8597
49.8048
49.7486
49.6912
49.6324
49.5724
49.5112
49.4487
49.385
49.3202
49.2542
49.1872
49.119
49.0497
48.9795
48.9082
48.8359
48.7627
48.6885
48.6135
48.5375
48.4608
48.3832
48.3048
48.2256
48.1457
48.0652
47.9839
47.902
47.8194
47.7363
47.6526
47.5684
47.4837
47.3985
47.3128
47.2268
47.1404
47.0536
46.9664
46.879
46.7913
46.7034
46.6153
46.5269
46.4385
46.3498
46.2611
46.1723
46.0835
45.9946
45.9058
45.817
45.7282
45.6396
45.551
45.4627
45.3744
45.2864
45.1986
45.111
45.0237
44.9366
44.8499
44.7635
44.6775
44.5918
44.5066
44.4217
44.3373
44.2534
44.1699
44.087
44.0045
43.9226
43.8413
43.7605
43.6804
43.6008
43.5219
43.4436
43.366
43.2891
43.2128
43.1373
43.0624
42.9883
42.915
42.8424
42.7706
42.6995
42.6293
42.5599
42.4912
42.4234
42.3564
42.2903
42.225
42.1606
42.097
42.0343
41.9725
41.9116
41.8515
41.7923
41.7341
41.6767
41.6203
41.5647
41.5101
41.4564
41.4035
41.3517
41.3007
41.2506
41.2015
41.1533
41.106
41.0596
41.0142
40.9697
40.926
40.8833
40.8416
40.8007
40.7607
40.7216
40.6834
40.6462
40.6098
40.5743
40.5396
40.5059
40.473
40.441
40.4098
40.3795
40.3501
40.3214
40.2937
40.2667
40.2406
40.2152
40.1907
40.167
40.144
40.1219
40.1005
40.0798
40.06
40.0408
40.0224
40.0048
39.9878
39.9716
39.956
39.9412
39.927
39.9135
39.9007
39.8885
39.8769
39.866
39.8557
39.846
39.8369
39.8283
39.8204
39.813
39.8062
39.8
39.7942
39.789
39.7844
39.7802
39.7765
39.7733
39.7705
39.7683
39.7664
39.7651
39.7641
39.7636
39.7634
39.7637
39.7644
39.7654
39.7668
39.7686
39.7707
39.7731
39.7759
39.779
39.7824
39.7861
39.7901
39.7943
39.7988
39.8036
39.8086
39.8139
39.8193
39.825
39.8309
39.837
39.8433
39.8498
39.8564
39.8632
39.8702
39.8773
39.8845
39.8919
39.8994
39.907
39.9147
39.9225
39.9303
39.9383
39.9463
39.9544
39.9625
39.9707
39.9789
39.9872
39.9955
40.0038
40.0121
40.0204
40.0287
40.0369
40.0452
40.0535
40.0617
40.0698
40.078
40.0861
40.0941
40.1021
40.11
40.1178
40.1255
40.1332
40.1408
40.1482
40.1556
40.1629
40.1701
40.1771
40.1841
40.1909
40.1976
40.2041
40.2106
40.2169
40.223
40.229
40.2348
40.2405
40.2461
40.2514
40.2567
40.2617
40.2666
40.2713
40.2758
40.2802
40.2843
40.2883
40.2921
40.2957
40.2992
40.3024
40.3054
40.3083
40.3109
40.3134
40.3156
40.3177
40.3195
40.3212
40.3226
40.3239
40.3249
40.3257
40.3263
40.3268
40.327
50.7713
50.7689
50.7639
50.7567
50.7473
50.7359
50.7226
50.7075
50.6906
50.6721
50.6519
50.6301
50.6066
50.5816
50.5549
50.5267
50.4969
50.4655
50.4326
50.3981
50.362
50.3244
50.2853
50.2447
50.2026
50.159
50.1139
50.0673
50.0193
49.9699
49.9191
49.8669
49.8133
49.7584
49.7022
49.6446
49.5858
49.5257
49.4644
49.4019
49.3382
49.2733
49.2073
49.1401
49.0719
49.0026
48.9323
48.8609
48.7886
48.7153
48.6411
48.566
48.49
48.4132
48.3355
48.2571
48.1779
48.0979
48.0173
47.936
47.854
47.7714
47.6882
47.6045
47.5202
47.4354
47.3502
47.2645
47.1784
47.0919
47.0051
46.9179
46.8305
46.7427
46.6547
46.5666
46.4782
46.3897
46.301
46.2122
46.1234
46.0345
45.9456
45.8567
45.7679
45.6791
45.5904
45.5019
45.4134
45.3252
45.2371
45.1492
45.0616
44.9743
44.8872
44.8005
44.7141
44.628
44.5423
44.457
44.3722
44.2878
44.2038
44.1203
44.0374
43.9549
43.873
43.7916
43.7109
43.6307
43.5511
43.4722
43.3939
43.3163
43.2394
43.1631
43.0876
43.0128
42.9387
42.8653
42.7927
42.7209
42.6499
42.5797
42.5102
42.4416
42.3738
42.3069
42.2407
42.1755
42.1111
42.0475
41.9848
41.923
41.8621
41.8021
41.743
41.6847
41.6274
41.571
41.5155
41.4608
41.4072
41.3544
41.3025
41.2516
41.2016
41.1525
41.1043
41.0571
41.0108
40.9654
40.9209
40.8773
40.8346
40.7929
40.752
40.7121
40.6731
40.635
40.5977
40.5614
40.5259
40.4914
40.4577
40.4248
40.3929
40.3618
40.3315
40.3021
40.2735
40.2458
40.2189
40.1928
40.1675
40.1431
40.1194
40.0965
40.0744
40.0531
40.0325
40.0127
39.9936
39.9753
39.9577
39.9408
39.9246
39.9091
39.8943
39.8802
39.8667
39.854
39.8418
39.8303
39.8195
39.8092
39.7996
39.7905
39.7821
39.7742
39.7669
39.7601
39.7539
39.7482
39.7431
39.7385
39.7343
39.7307
39.7276
39.7249
39.7227
39.7209
39.7196
39.7187
39.7182
39.7181
39.7184
39.7192
39.7203
39.7217
39.7235
39.7257
39.7282
39.731
39.7341
39.7376
39.7413
39.7453
39.7496
39.7542
39.759
39.7641
39.7694
39.7749
39.7806
39.7866
39.7927
39.7991
39.8056
39.8123
39.8191
39.8261
39.8332
39.8405
39.8479
39.8554
39.8631
39.8708
39.8786
39.8866
39.8945
39.9026
39.9107
39.9189
39.9271
39.9354
39.9436
39.952
39.9603
39.9686
39.9769
39.9853
39.9936
40.0019
40.0102
40.0184
40.0266
40.0348
40.0429
40.0509
40.0589
40.0668
40.0747
40.0825
40.0902
40.0978
40.1053
40.1127
40.12
40.1272
40.1342
40.1412
40.148
40.1547
40.1613
40.1678
40.1741
40.1802
40.1862
40.1921
40.1978
40.2034
40.2087
40.214
40.219
40.2239
40.2286
40.2332
40.2375
40.2417
40.2457
40.2495
40.2531
40.2566
40.2598
40.2629
40.2657
40.2684
40.2708
40.2731
40.2751
40.277
40.2786
40.2801
40.2813
40.2824
40.2832
40.2838
40.2842
40.2844
50.7137
50.7113
50.7064
50.6992
50.6898
50.6785
50.6652
50.6501
50.6332
50.6146
50.5943
50.5724
50.5489
50.5238
50.497
50.4687
50.4388
50.4073
50.3743
50.3397
50.3036
50.2659
50.2268
50.1861
50.1439
50.1002
50.055
50.0084
49.9603
49.9109
49.86
49.8077
49.7541
49.6991
49.6428
49.5852
49.5264
49.4662
49.4049
49.3423
49.2785
49.2136
49.1475
49.0803
49.012
48.9427
48.8723
48.8009
48.7285
48.6552
48.5809
48.5058
48.4297
48.3529
48.2752
48.1967
48.1174
48.0374
47.9567
47.8754
47.7933
47.7107
47.6275
47.5437
47.4594
47.3746
47.2893
47.2035
47.1174
47.0309
46.944
46.8568
46.7693
46.6815
46.5935
46.5053
46.4169
46.3283
46.2396
46.1508
46.062
45.9731
45.8841
45.7952
45.7063
45.6175
45.5288
45.4402
45.3518
45.2635
45.1754
45.0875
44.9999
44.9125
44.8254
44.7387
44.6523
44.5662
44.4805
44.3952
44.3103
44.2259
44.1419
44.0585
43.9755
43.893
43.8111
43.7298
43.649
43.5689
43.4893
43.4104
43.3321
43.2545
43.1776
43.1013
43.0258
42.951
42.8769
42.8036
42.731
42.6592
42.5882
42.518
42.4486
42.38
42.3122
42.2453
42.1792
42.114
42.0496
41.9861
41.9234
41.8617
41.8008
41.7408
41.6817
41.6235
41.5662
41.5098
41.4543
41.3998
41.3461
41.2934
41.2416
41.1907
41.1408
41.0917
41.0436
40.9964
40.9501
40.9048
40.8603
40.8168
40.7742
40.7325
40.6917
40.6519
40.6129
40.5748
40.5376
40.5014
40.466
40.4314