/*--------------------------------*- C++ -*----------------------------------*\
| =========                 |                                                 |
| \\      /  F ield         | OpenFOAM: The Open Source CFD Toolbox           |
|  \\    /   O peration     | Version:  2212                                  |
|   \\  /    A nd           | Website:  www.openfoam.com                      |
|    \\/     M anipulation  |                                                 |
\*---------------------------------------------------------------------------*/
FoamFile
{
    version     2.0;
    format      ascii;
    arch        "LSB;label=32;scalar=64";
    class       volScalarField;
    location    "850";
    object      p_rgh_0;
}
// * * * * * * * * * * * * * * * * * * * * * * * * * * * * * * * * * * * * * //

dimensions      [1 -1 -2 0 0 0 0];

internalField   nonuniform List<scalar> 
204800
(
51.2753
51.2772
51.2752
51.2707
51.2642
51.2559
51.2456
51.2333
51.2189
51.2024
51.1839
51.1636
51.1413
51.1173
51.0916
51.0641
51.035
51.0042
50.9718
50.9377
50.9021
50.8649
50.8261
50.7857
50.7439
50.7005
50.6556
50.6092
50.5613
50.512
50.4613
50.4091
50.3556
50.3008
50.2446
50.187
50.1282
50.0682
50.0068
49.9443
49.8805
49.8156
49.7495
49.6823
49.614
49.5446
49.4742
49.4028
49.3304
49.257
49.1827
49.1075
49.0314
48.9544
48.8766
48.798
48.7187
48.6386
48.5578
48.4763
48.3942
48.3114
48.2281
48.1442
48.0597
47.9748
47.8893
47.8035
47.7172
47.6305
47.5434
47.4561
47.3684
47.2804
47.1923
47.1038
47.0152
46.9265
46.8376
46.7486
46.6595
46.5704
46.4813
46.3921
46.303
46.214
46.125
46.0362
45.9475
45.859
45.7706
45.6825
45.5946
45.507
45.4196
45.3326
45.2459
45.1595
45.0736
44.988
44.9028
44.8181
44.7338
44.65
44.5668
44.484
44.4018
44.3201
44.239
44.1585
44.0787
43.9994
43.9208
43.8429
43.7656
43.689
43.6131
43.538
43.4636
43.3899
43.317
43.2448
43.1735
43.1029
43.0332
42.9642
42.8961
42.8288
42.7623
42.6967
42.632
42.5681
42.5051
42.443
42.3817
42.3213
42.2619
42.2033
42.1457
42.0889
42.0331
41.9781
41.9241
41.871
41.8189
41.7676
41.7173
41.6679
41.6194
41.5718
41.5252
41.4795
41.4347
41.3908
41.3479
41.3058
41.2647
41.2245
41.1852
41.1467
41.1092
41.0726
41.0369
41.002
40.9681
40.935
40.9028
40.8714
40.8409
40.8112
40.7824
40.7545
40.7273
40.701
40.6755
40.6508
40.6269
40.6038
40.5815
40.5599
40.5392
40.5192
40.4999
40.4814
40.4636
40.4465
40.4301
40.4145
40.3995
40.3852
40.3716
40.3587
40.3464
40.3347
40.3237
40.3133
40.3036
40.2944
40.2858
40.2778
40.2704
40.2635
40.2572
40.2514
40.2462
40.2415
40.2373
40.2335
40.2303
40.2275
40.2253
40.2234
40.222
40.2211
40.2205
40.2204
40.2207
40.2214
40.2224
40.2238
40.2256
40.2278
40.2302
40.233
40.2361
40.2396
40.2433
40.2473
40.2516
40.2562
40.261
40.266
40.2713
40.2769
40.2826
40.2886
40.2948
40.3011
40.3076
40.3144
40.3212
40.3283
40.3354
40.3428
40.3502
40.3578
40.3654
40.3732
40.3811
40.389
40.3971
40.4052
40.4133
40.4216
40.4298
40.4382
40.4465
40.4549
40.4632
40.4716
40.48
40.4884
40.4968
40.5051
40.5135
40.5218
40.53
40.5383
40.5464
40.5546
40.5626
40.5706
40.5785
40.5863
40.5941
40.6018
40.6093
40.6168
40.6241
40.6314
40.6385
40.6455
40.6524
40.6592
40.6658
40.6723
40.6787
40.6849
40.691
40.6969
40.7026
40.7082
40.7137
40.719
40.7241
40.729
40.7337
40.7383
40.7427
40.7469
40.751
40.7548
40.7585
40.7619
40.7652
40.7683
40.7712
40.7738
40.7763
40.7786
40.7807
40.7825
40.7842
40.7857
40.7869
40.788
40.7888
40.7894
40.7899
40.7901
51.1939
51.1922
51.1879
51.1813
51.1727
51.1624
51.1503
51.1365
51.1209
51.1036
51.0845
51.0638
51.0413
51.0172
50.9913
50.9639
50.9347
50.9039
50.8715
50.8375
50.8019
50.7648
50.726
50.6857
50.6439
50.6006
50.5558
50.5094
50.4617
50.4124
50.3618
50.3098
50.2564
50.2016
50.1455
50.0881
50.0294
49.9694
49.9082
49.8457
49.7821
49.7173
49.6513
49.5842
49.5161
49.4468
49.3765
49.3052
49.2329
49.1597
49.0855
49.0104
48.9344
48.8576
48.78
48.7015
48.6223
48.5424
48.4617
48.3804
48.2984
48.2158
48.1326
48.0489
47.9646
47.8798
47.7945
47.7088
47.6226
47.5361
47.4492
47.362
47.2745
47.1867
47.0987
47.0104
46.922
46.8334
46.7447
46.6558
46.5669
46.4779
46.389
46.3
46.2111
46.1222
46.0334
45.9447
45.8562
45.7678
45.6797
45.5917
45.504
45.4165
45.3293
45.2424
45.1559
45.0697
44.9839
44.8984
44.8134
44.7289
44.6448
44.5611
44.478
44.3954
44.3133
44.2318
44.1509
44.0705
43.9908
43.9117
43.8333
43.7555
43.6783
43.6019
43.5262
43.4512
43.3769
43.3033
43.2306
43.1586
43.0873
43.0169
42.9473
42.8784
42.8104
42.7433
42.677
42.6115
42.5468
42.4831
42.4202
42.3582
42.2971
42.2368
42.1775
42.119
42.0615
42.0048
41.9491
41.8943
41.8403
41.7874
41.7353
41.6841
41.6339
41.5846
41.5362
41.4887
41.4422
41.3966
41.3519
41.3081
41.2652
41.2232
41.1822
41.1421
41.1028
41.0645
41.027
40.9905
40.9548
40.9201
40.8862
40.8531
40.821
40.7897
40.7592
40.7297
40.7009
40.673
40.6459
40.6196
40.5942
40.5695
40.5457
40.5226
40.5004
40.4789
40.4581
40.4382
40.4189
40.4004
40.3827
40.3657
40.3493
40.3337
40.3188
40.3045
40.2909
40.278
40.2658
40.2541
40.2432
40.2328
40.223
40.2139
40.2053
40.1974
40.19
40.1831
40.1768
40.1711
40.1658
40.1611
40.1569
40.1532
40.15
40.1472
40.145
40.1431
40.1417
40.1408
40.1403
40.1401
40.1404
40.1411
40.1422
40.1436
40.1454
40.1475
40.15
40.1528
40.1559
40.1593
40.163
40.167
40.1713
40.1759
40.1807
40.1857
40.191
40.1966
40.2023
40.2083
40.2144
40.2208
40.2273
40.234
40.2409
40.2479
40.255
40.2623
40.2698
40.2773
40.285
40.2928
40.3006
40.3086
40.3166
40.3247
40.3328
40.341
40.3493
40.3576
40.3659
40.3743
40.3826
40.391
40.3994
40.4078
40.4161
40.4245
40.4328
40.4411
40.4493
40.4576
40.4657
40.4738
40.4819
40.4898
40.4977
40.5056
40.5133
40.5209
40.5285
40.5359
40.5433
40.5505
40.5577
40.5647
40.5715
40.5783
40.5849
40.5914
40.5978
40.604
40.61
40.6159
40.6217
40.6273
40.6327
40.6379
40.643
40.648
40.6527
40.6573
40.6617
40.6659
40.6699
40.6737
40.6774
40.6809
40.6841
40.6872
40.6901
40.6927
40.6952
40.6975
40.6996
40.7014
40.7031
40.7045
40.7058
40.7068
40.7077
40.7083
40.7087
40.7089
51.1764
51.1741
51.1695
51.163
51.1544
51.1441
51.132
51.1182
51.1026
51.0853
51.0662
51.0454
51.0229
50.9987
50.9729
50.9454
50.9162
50.8854
50.853
50.8189
50.7833
50.7461
50.7074
50.6671
50.6253
50.5819
50.5371
50.4907
50.443
50.3937
50.3431
50.291
50.2376
50.1828
50.1267
50.0693
50.0106
49.9506
49.8894
49.827
49.7633
49.6985
49.6326
49.5655
49.4973
49.4281
49.3578
49.2865
49.2142
49.1409
49.0667
48.9917
48.9157
48.8389
48.7612
48.6828
48.6036
48.5237
48.443
48.3617
48.2797
48.1971
48.1139
48.0301
47.9459
47.8611
47.7758
47.6901
47.6039
47.5174
47.4306
47.3433
47.2558
47.1681
47.08
46.9918
46.9034
46.8148
46.726
46.6372
46.5483
46.4594
46.3704
46.2814
46.1925
46.1036
46.0149
45.9262
45.8377
45.7493
45.6611
45.5732
45.4855
45.398
45.3108
45.224
45.1374
45.0513
44.9654
44.88
44.795
44.7105
44.6264
44.5428
44.4597
44.3771
44.295
44.2135
44.1326
44.0523
43.9725
43.8935
43.815
43.7372
43.6601
43.5837
43.508
43.433
43.3587
43.2852
43.2124
43.1404
43.0692
42.9988
42.9292
42.8604
42.7924
42.7253
42.659
42.5935
42.5289
42.4651
42.4023
42.3403
42.2792
42.2189
42.1596
42.1012
42.0436
41.987
41.9313
41.8765
41.8226
41.7696
41.7176
41.6664
41.6162
41.5669
41.5186
41.4711
41.4246
41.379
41.3343
41.2905
41.2477
41.2057
41.1647
41.1246
41.0853
41.047
41.0096
40.9731
40.9374
40.9027
40.8688
40.8358
40.8036
40.7724
40.7419
40.7124
40.6836
40.6557
40.6287
40.6024
40.577
40.5524
40.5285
40.5055
40.4832
40.4618
40.441
40.4211
40.4019
40.3834
40.3657
40.3486
40.3323
40.3167
40.3018
40.2876
40.274
40.2611
40.2489
40.2373
40.2263
40.2159
40.2062
40.1971
40.1885
40.1806
40.1732
40.1663
40.1601
40.1543
40.1491
40.1444
40.1402
40.1365
40.1333
40.1306
40.1283
40.1265
40.1251
40.1242
40.1237
40.1236
40.1239
40.1245
40.1256
40.127
40.1288
40.131
40.1335
40.1363
40.1394
40.1428
40.1466
40.1506
40.1549
40.1594
40.1643
40.1693
40.1746
40.1802
40.1859
40.1919
40.1981
40.2044
40.2109
40.2177
40.2245
40.2316
40.2387
40.246
40.2535
40.261
40.2687
40.2765
40.2844
40.2923
40.3003
40.3084
40.3166
40.3248
40.3331
40.3414
40.3497
40.3581
40.3664
40.3748
40.3832
40.3916
40.4
40.4083
40.4166
40.4249
40.4332
40.4414
40.4496
40.4577
40.4657
40.4737
40.4816
40.4894
40.4972
40.5048
40.5124
40.5198
40.5272
40.5344
40.5416
40.5486
40.5555
40.5622
40.5688
40.5753
40.5817
40.5879
40.5939
40.5998
40.6056
40.6112
40.6166
40.6219
40.627
40.6319
40.6367
40.6412
40.6456
40.6498
40.6539
40.6577
40.6614
40.6648
40.6681
40.6712
40.674
40.6767
40.6792
40.6815
40.6835
40.6854
40.6871
40.6885
40.6898
40.6908
40.6916
40.6923
40.6927
40.6929
51.1003
51.0977
51.0925
51.0851
51.0756
51.0643
51.0513
51.0366
51.0203
51.0024
50.9829
50.9617
50.939
50.9146
50.8886
50.861
50.8317
50.8009
50.7684
50.7344
50.6987
50.6616
50.6228
50.5825
50.5407
50.4974
50.4526
50.4063
50.3586
50.3094
50.2588
50.2068
50.1534
50.0987
50.0427
49.9853
49.9267
49.8667
49.8056
49.7432
49.6796
49.6149
49.549
49.482
49.4139
49.3447
49.2745
49.2033
49.1311
49.0579
48.9839
48.9089
48.833
48.7563
48.6787
48.6004
48.5213
48.4414
48.3609
48.2796
48.1977
48.1152
48.0321
47.9485
47.8643
47.7796
47.6944
47.6088
47.5228
47.4364
47.3496
47.2625
47.1751
47.0875
46.9995
46.9114
46.8231
46.7346
46.646
46.5573
46.4685
46.3796
46.2908
46.2019
46.1131
46.0244
45.9357
45.8472
45.7587
45.6705
45.5824
45.4946
45.407
45.3196
45.2326
45.1458
45.0594
44.9733
44.8877
44.8024
44.7175
44.633
44.549
44.4655
44.3825
44.3001
44.2181
44.1367
44.0559
43.9757
43.8961
43.8171
43.7388
43.6611
43.5841
43.5078
43.4322
43.3573
43.2831
43.2097
43.137
43.0651
42.994
42.9237
42.8542
42.7855
42.7176
42.6505
42.5843
42.519
42.4545
42.3908
42.328
42.2661
42.2051
42.145
42.0857
42.0274
41.9699
41.9134
41.8577
41.803
41.7492
41.6963
41.6444
41.5933
41.5432
41.494
41.4457
41.3983
41.3518
41.3063
41.2617
41.218
41.1752
41.1333
41.0924
41.0523
41.0132
40.9749
40.9376
40.9011
40.8655
40.8308
40.797
40.7641
40.732
40.7008
40.6704
40.6409
40.6122
40.5843
40.5573
40.5311
40.5057
40.4812
40.4574
40.4344
40.4122
40.3908
40.3701
40.3502
40.331
40.3126
40.2949
40.2779
40.2616
40.246
40.2312
40.217
40.2034
40.1906
40.1783
40.1668
40.1558
40.1455
40.1358
40.1267
40.1182
40.1102
40.1029
40.0961
40.0898
40.0841
40.0789
40.0742
40.07
40.0664
40.0632
40.0605
40.0582
40.0564
40.0551
40.0541
40.0536
40.0535
40.0539
40.0546
40.0556
40.0571
40.0589
40.061
40.0635
40.0663
40.0695
40.0729
40.0767
40.0807
40.085
40.0896
40.0944
40.0995
40.1048
40.1103
40.1161
40.122
40.1282
40.1346
40.1411
40.1478
40.1547
40.1617
40.1689
40.1762
40.1836
40.1912
40.1989
40.2066
40.2145
40.2224
40.2305
40.2386
40.2467
40.2549
40.2632
40.2715
40.2798
40.2882
40.2966
40.3049
40.3133
40.3217
40.3301
40.3384
40.3467
40.355
40.3633
40.3715
40.3796
40.3877
40.3958
40.4037
40.4116
40.4195
40.4272
40.4348
40.4424
40.4498
40.4572
40.4644
40.4715
40.4786
40.4854
40.4922
40.4988
40.5053
40.5116
40.5178
40.5239
40.5298
40.5355
40.5411
40.5466
40.5518
40.5569
40.5618
40.5666
40.5711
40.5755
40.5797
40.5838
40.5876
40.5912
40.5947
40.598
40.601
40.6039
40.6066
40.6091
40.6113
40.6134
40.6153
40.6169
40.6184
40.6196
40.6207
40.6215
40.6221
40.6226
40.6228
51.07
51.0675
51.0624
51.0552
51.0458
51.0347
51.0217
51.0071
50.9907
50.9728
50.9533
50.9321
50.9093
50.8849
50.8588
50.8311
50.8018
50.7709
50.7384
50.7043
50.6687
50.6315
50.5927
50.5524
50.5105
50.4672
50.4224
50.3761
50.3283
50.2791
50.2285
50.1765
50.1231
50.0683
50.0123
49.9549
49.8962
49.8363
49.7752
49.7128
49.6492
49.5844
49.5185
49.4515
49.3834
49.3142
49.244
49.1728
49.1006
49.0274
48.9533
48.8783
48.8024
48.7257
48.6481
48.5698
48.4907
48.4108
48.3303
48.249
48.1672
48.0847
48.0016
47.9179
47.8337
47.749
47.6639
47.5782
47.4922
47.4058
47.319
47.2319
47.1445
47.0569
46.9689
46.8808
46.7925
46.704
46.6154
46.5267
46.4379
46.3491
46.2602
46.1714
46.0826
45.9938
45.9052
45.8166
45.7282
45.64
45.5519
45.4641
45.3765
45.2892
45.2021
45.1154
45.0289
44.9429
44.8572
44.7719
44.687
44.6026
44.5186
44.4352
44.3522
44.2697
44.1878
44.1064
44.0256
43.9454
43.8658
43.7868
43.7085
43.6308
43.5539
43.4776
43.402
43.3271
43.253
43.1796
43.1069
43.0351
42.964
42.8937
42.8242
42.7555
42.6876
42.6206
42.5544
42.4891
42.4246
42.3609
42.2982
42.2363
42.1753
42.1152
42.056
41.9977
41.9402
41.8837
41.8281
41.7734
41.7196
41.6668
41.6148
41.5638
41.5137
41.4645
41.4163
41.3689
41.3225
41.277
41.2324
41.1887
41.146
41.1041
41.0632
41.0232
40.9841
40.9458
40.9085
40.8721
40.8365
40.8019
40.7681
40.7351
40.7031
40.6719
40.6416
40.6121
40.5834
40.5556
40.5286
40.5025
40.4771
40.4526
40.4288
40.4058
40.3837
40.3623
40.3416
40.3217
40.3026
40.2842
40.2665
40.2496
40.2333
40.2178
40.2029
40.1888
40.1753
40.1624
40.1502
40.1387
40.1278
40.1175
40.1078
40.0987
40.0902
40.0823
40.075
40.0682
40.062
40.0563
40.0511
40.0464
40.0423
40.0387
40.0355
40.0328
40.0306
40.0288
40.0275
40.0266
40.0261
40.026
40.0263
40.0271
40.0282
40.0296
40.0315
40.0336
40.0361
40.039
40.0421
40.0456
40.0494
40.0534
40.0577
40.0623
40.0672
40.0723
40.0776
40.0831
40.0889
40.0949
40.1011
40.1075
40.114
40.1207
40.1276
40.1347
40.1419
40.1492
40.1567
40.1642
40.1719
40.1797
40.1876
40.1955
40.2036
40.2117
40.2199
40.2281
40.2364
40.2447
40.253
40.2614
40.2698
40.2782
40.2866
40.2949
40.3033
40.3117
40.32
40.3283
40.3366
40.3448
40.353
40.3611
40.3691
40.3771
40.385
40.3928
40.4006
40.4082
40.4158
40.4233
40.4306
40.4379
40.445
40.452
40.4589
40.4656
40.4723
40.4788
40.4851
40.4913
40.4974
40.5033
40.509
40.5146
40.5201
40.5253
40.5304
40.5353
40.5401
40.5447
40.5491
40.5533
40.5573
40.5611
40.5648
40.5683
40.5715
40.5746
40.5775
40.5801
40.5826
40.5849
40.587
40.5888
40.5905
40.592
40.5932
40.5942
40.5951
40.5957
40.5961
40.5963
51.0006
50.9981
50.9928
50.9853
50.9755
50.9639
50.9505
50.9355
50.9187
50.9005
50.8806
50.8592
50.8361
50.8115
50.7853
50.7575
50.7281
50.6971
50.6645
50.6304
50.5947
50.5574
50.5186
50.4783
50.4365
50.3931
50.3483
50.302
50.2542
50.205
50.1544
50.1024
50.049
49.9943
49.9383
49.8809
49.8223
49.7624
49.7013
49.6389
49.5754
49.5107
49.4448
49.3778
49.3098
49.2406
49.1705
49.0993
49.0271
48.954
48.8799
48.805
48.7291
48.6525
48.575
48.4967
48.4176
48.3378
48.2573
48.1761
48.0943
48.0118
47.9288
47.8452
47.7611
47.6764
47.5913
47.5058
47.4198
47.3335
47.2468
47.1597
47.0724
46.9848
46.8969
46.8089
46.7206
46.6322
46.5437
46.455
46.3663
46.2775
46.1887
46.1
46.0112
45.9226
45.834
45.7455
45.6572
45.569
45.481
45.3933
45.3057
45.2185
45.1315
45.0448
44.9585
44.8725
44.7869
44.7017
44.6169
44.5325
44.4486
44.3652
44.2823
44.1999
44.1181
44.0368
43.956
43.8759
43.7964
43.7175
43.6393
43.5617
43.4848
43.4086
43.333
43.2582
43.1842
43.1109
43.0383
42.9665
42.8955
42.8253
42.7558
42.6872
42.6194
42.5525
42.4864
42.4211
42.3567
42.2931
42.2304
42.1686
42.1077
42.0477
41.9885
41.9303
41.8729
41.8165
41.7609
41.7063
41.6526
41.5998
41.5479
41.497
41.4469
41.3978
41.3496
41.3024
41.256
41.2106
41.166
41.1224
41.0797
41.038
40.9971
40.9571
40.9181
40.8799
40.8426
40.8063
40.7708
40.7362
40.7024
40.6696
40.6376
40.6064
40.5761
40.5467
40.5181
40.4903
40.4634
40.4373
40.412
40.3875
40.3638
40.3409
40.3188
40.2974
40.2768
40.257
40.2379
40.2195
40.2019
40.185
40.1688
40.1533
40.1384
40.1243
40.1109
40.0981
40.0859
40.0744
40.0635
40.0533
40.0436
40.0346
40.0261
40.0183
40.0109
40.0042
39.998
39.9923
39.9872
39.9826
39.9785
39.9748
39.9717
39.969
39.9668
39.9651
39.9638
39.9629
39.9624
39.9624
39.9628
39.9635
39.9646
39.9661
39.968
39.9702
39.9727
39.9755
39.9787
39.9822
39.986
39.99
39.9944
39.999
40.0038
40.0089
40.0143
40.0199
40.0257
40.0317
40.0379
40.0442
40.0508
40.0575
40.0644
40.0715
40.0787
40.086
40.0935
40.1011
40.1088
40.1166
40.1245
40.1324
40.1405
40.1486
40.1568
40.165
40.1733
40.1816
40.19
40.1983
40.2067
40.2151
40.2235
40.2319
40.2403
40.2486
40.257
40.2653
40.2736
40.2818
40.2899
40.2981
40.3061
40.3141
40.322
40.3298
40.3376
40.3452
40.3528
40.3603
40.3676
40.3749
40.382
40.389
40.3959
40.4027
40.4093
40.4158
40.4221
40.4283
40.4344
40.4403
40.4461
40.4516
40.4571
40.4623
40.4674
40.4724
40.4771
40.4817
40.4861
40.4903
40.4943
40.4982
40.5018
40.5053
40.5085
40.5116
40.5145
40.5172
40.5196
40.5219
40.524
40.5259
40.5275
40.529
40.5302
40.5313
40.5321
40.5327
40.5332
40.5334
50.9628
50.9603
50.9552
50.9478
50.9382
50.9267
50.9134
50.8984
50.8818
50.8635
50.8436
50.8221
50.799
50.7744
50.7481
50.7202
50.6908
50.6597
50.6271
50.5929
50.5571
50.5198
50.481
50.4406
50.3987
50.3553
50.3105
50.2641
50.2163
50.1671
50.1164
50.0644
50.011
49.9563
49.9002
49.8428
49.7842
49.7243
49.6631
49.6007
49.5371
49.4724
49.4065
49.3395
49.2714
49.2023
49.1321
49.0609
48.9887
48.9155
48.8415
48.7665
48.6906
48.6139
48.5364
48.4581
48.379
48.2992
48.2187
48.1375
48.0557
47.9732
47.8901
47.8065
47.7224
47.6377
47.5526
47.467
47.3811
47.2947
47.208
47.1209
47.0336
46.946
46.8581
46.77
46.6818
46.5933
46.5048
46.4161
46.3274
46.2386
46.1499
46.0611
45.9723
45.8837
45.7951
45.7066
45.6183
45.5301
45.4421
45.3543
45.2668
45.1796
45.0926
45.0059
44.9196
44.8336
44.748
44.6628
44.578
44.4936
44.4098
44.3264
44.2434
44.1611
44.0792
43.9979
43.9172
43.8371
43.7576
43.6787
43.6005
43.5229
43.446
43.3698
43.2943
43.2195
43.1455
43.0722
42.9996
42.9279
42.8569
42.7867
42.7173
42.6487
42.5809
42.514
42.4479
42.3827
42.3183
42.2547
42.1921
42.1303
42.0694
42.0094
41.9503
41.892
41.8347
41.7783
41.7228
41.6682
41.6145
41.5618
41.5099
41.459
41.409
41.3599
41.3118
41.2645
41.2182
41.1728
41.1283
41.0847
41.0421
41.0003
40.9595
40.9196
40.8805
40.8424
40.8052
40.7689
40.7334
40.6988
40.6651
40.6323
40.6004
40.5693
40.539
40.5096
40.4811
40.4533
40.4264
40.4004
40.3751
40.3506
40.327
40.3041
40.282
40.2607
40.2401
40.2203
40.2013
40.183
40.1654
40.1485
40.1324
40.1169
40.1021
40.088
40.0746
40.0618
40.0497
40.0383
40.0274
40.0172
40.0076
39.9986
39.9902
39.9823
39.9751
39.9684
39.9622
39.9566
39.9515
39.9469
39.9428
39.9392
39.9361
39.9335
39.9313
39.9296
39.9283
39.9275
39.9271
39.9271
39.9275
39.9282
39.9294
39.9309
39.9328
39.935
39.9376
39.9405
39.9437
39.9472
39.951
39.9551
39.9594
39.9641
39.969
39.9741
39.9795
39.9851
39.9909
39.9969
40.0031
40.0095
40.0161
40.0229
40.0298
40.0369
40.0441
40.0515
40.059
40.0666
40.0743
40.0821
40.09
40.098
40.1061
40.1142
40.1224
40.1307
40.139
40.1473
40.1557
40.1641
40.1725
40.1809
40.1893
40.1977
40.2061
40.2145
40.2229
40.2312
40.2395
40.2477
40.2559
40.264
40.2721
40.2801
40.288
40.2958
40.3036
40.3113
40.3188
40.3263
40.3337
40.3409
40.3481
40.3551
40.362
40.3688
40.3754
40.3819
40.3883
40.3945
40.4006
40.4065
40.4122
40.4178
40.4233
40.4286
40.4337
40.4386
40.4434
40.4479
40.4523
40.4566
40.4606
40.4644
40.4681
40.4716
40.4748
40.4779
40.4808
40.4835
40.4859
40.4882
40.4903
40.4922
40.4938
40.4953
40.4965
40.4976
40.4984
40.499
40.4995
40.4997
50.8986
50.8961
50.8909
50.8835
50.8738
50.8622
50.8486
50.8335
50.8166
50.7981
50.778
50.7564
50.7331
50.7083
50.6819
50.6539
50.6243
50.5932
50.5605
50.5262
50.4904
50.453
50.4141
50.3737
50.3318
50.2883
50.2434
50.1971
50.1492
50.1
50.0493
49.9973
49.9439
49.8891
49.8331
49.7757
49.717
49.6571
49.5959
49.5336
49.47
49.4053
49.3394
49.2724
49.2043
49.1351
49.065
48.9938
48.9216
48.8485
48.7744
48.6994
48.6236
48.5469
48.4694
48.3911
48.312
48.2322
48.1517
48.0706
47.9887
47.9063
47.8233
47.7397
47.6555
47.5709
47.4858
47.4003
47.3143
47.228
47.1413
47.0543
46.9669
46.8794
46.7915
46.7035
46.6152
46.5268
46.4383
46.3497
46.261
46.1723
46.0835
45.9948
45.9061
45.8174
45.7289
45.6404
45.5521
45.464
45.3761
45.2883
45.2009
45.1136
45.0267
44.9401
44.8538
44.7678
44.6823
44.5971
44.5124
44.4281
44.3442
44.2609
44.178
44.0957
44.0139
43.9326
43.852
43.7719
43.6924
43.6136
43.5354
43.4579
43.3811
43.3049
43.2295
43.1547
43.0807
43.0075
42.935
42.8633
42.7923
42.7222
42.6528
42.5843
42.5166
42.4497
42.3837
42.3185
42.2542
42.1907
42.1281
42.0664
42.0055
41.9456
41.8865
41.8283
41.7711
41.7147
41.6593
41.6047
41.5511
41.4984
41.4466
41.3958
41.3458
41.2968
41.2487
41.2015
41.1552
41.1099
41.0655
41.022
40.9794
40.9377
40.8969
40.857
40.8181
40.78
40.7428
40.7065
40.6711
40.6366
40.603
40.5702
40.5383
40.5073
40.4771
40.4478
40.4193
40.3916
40.3647
40.3387
40.3135
40.2891
40.2655
40.2427
40.2206
40.1994
40.1789
40.1591
40.1401
40.1218
40.1043
40.0875
40.0714
40.056
40.0412
40.0272
40.0138
40.0011
39.989
39.9776
39.9668
39.9567
39.9471
39.9381
39.9298
39.922
39.9147
39.9081
39.9019
39.8964
39.8913
39.8867
39.8827
39.8792
39.8761
39.8735
39.8714
39.8697
39.8685
39.8677
39.8673
39.8673
39.8677
39.8685
39.8697
39.8713
39.8732
39.8754
39.878
39.8809
39.8842
39.8877
39.8915
39.8957
39.9001
39.9047
39.9096
39.9148
39.9202
39.9258
39.9317
39.9377
39.944
39.9504
39.957
39.9638
39.9708
39.9779
39.9851
39.9925
40
40.0076
40.0153
40.0232
40.0311
40.0391
40.0472
40.0554
40.0636
40.0719
40.0802
40.0885
40.0969
40.1053
40.1137
40.1222
40.1306
40.139
40.1474
40.1558
40.1642
40.1725
40.1808
40.189
40.1972
40.2054
40.2135
40.2215
40.2294
40.2373
40.245
40.2527
40.2603
40.2678
40.2751
40.2824
40.2896
40.2966
40.3035
40.3103
40.3169
40.3234
40.3298
40.336
40.3421
40.348
40.3538
40.3594
40.3648
40.3701
40.3752
40.3801
40.3849
40.3895
40.3939
40.3981
40.4022
40.406
40.4097
40.4131
40.4164
40.4195
40.4224
40.425
40.4275
40.4298
40.4319
40.4338
40.4354
40.4369
40.4381
40.4392
40.44
40.4406
40.4411
40.4413
50.8559
50.8535
50.8484
50.8411
50.8315
50.82
50.8066
50.7915
50.7747
50.7563
50.7362
50.7145
50.6912
50.6663
50.6399
50.6118
50.5822
50.551
50.5182
50.4839
50.448
50.4105
50.3716
50.3311
50.2891
50.2456
50.2007
50.1542
50.1064
50.0571
50.0064
49.9543
49.9008
49.846
49.7899
49.7325
49.6738
49.6138
49.5526
49.4902
49.4266
49.3618
49.2959
49.2289
49.1607
49.0916
49.0213
48.9501
48.8779
48.8047
48.7306
48.6556
48.5797
48.503
48.4255
48.3471
48.268
48.1882
48.1077
48.0265
47.9446
47.8621
47.7791
47.6954
47.6113
47.5266
47.4415
47.3559
47.2699
47.1836
47.0968
47.0098
46.9224
46.8348
46.747
46.6589
46.5706
46.4822
46.3937
46.305
46.2163
46.1275
46.0388
45.95
45.8613
45.7726
45.684
45.5956
45.5073
45.4191
45.3312
45.2434
45.1559
45.0687
44.9817
44.8951
44.8088
44.7229
44.6373
44.5521
44.4674
44.3831
44.2992
44.2158
44.133
44.0506
43.9688
43.8876
43.8069
43.7269
43.6474
43.5686
43.4904
43.4129
43.3361
43.2599
43.1845
43.1098
43.0358
42.9626
42.8901
42.8184
42.7475
42.6773
42.608
42.5395
42.4718
42.4049
42.3389
42.2738
42.2094
42.146
42.0834
42.0217
41.9609
41.901
41.842
41.7838
41.7266
41.6703
41.6148
41.5603
41.5068
41.4541
41.4023
41.3515
41.3016
41.2526
41.2045
41.1574
41.1112
41.0659
41.0215
40.978
40.9355
40.8938
40.8531
40.8132
40.7743
40.7363
40.6992
40.6629
40.6276
40.5931
40.5595
40.5268
40.4949
40.4639
40.4338
40.4045
40.3761
40.3484
40.3217
40.2957
40.2705
40.2462
40.2226
40.1998
40.1778
40.1566
40.1362
40.1165
40.0975
40.0793
40.0618
40.045
40.029
40.0136
39.9989
39.9849
39.9716
39.9589
39.9469
39.9356
39.9248
39.9147
39.9052
39.8963
39.8879
39.8802
39.873
39.8664
39.8603
39.8548
39.8497
39.8452
39.8413
39.8378
39.8347
39.8322
39.8301
39.8285
39.8273
39.8265
39.8262
39.8262
39.8267
39.8276
39.8288
39.8304
39.8323
39.8346
39.8373
39.8402
39.8435
39.8471
39.851
39.8551
39.8595
39.8642
39.8692
39.8744
39.8798
39.8855
39.8914
39.8975
39.9037
39.9102
39.9169
39.9237
39.9307
39.9378
39.9451
39.9525
39.96
39.9677
39.9754
39.9833
39.9913
39.9993
40.0074
40.0156
40.0239
40.0322
40.0405
40.0489
40.0573
40.0657
40.0742
40.0826
40.0911
40.0995
40.1079
40.1164
40.1247
40.1331
40.1414
40.1497
40.1579
40.1661
40.1742
40.1822
40.1901
40.198
40.2058
40.2135
40.2211
40.2286
40.236
40.2433
40.2504
40.2575
40.2644
40.2712
40.2778
40.2844
40.2907
40.297
40.3031
40.309
40.3148
40.3204
40.3259
40.3311
40.3363
40.3412
40.346
40.3506
40.355
40.3592
40.3633
40.3671
40.3708
40.3742
40.3775
40.3806
40.3835
40.3862
40.3887
40.391
40.393
40.3949
40.3966
40.398
40.3993
40.4003
40.4012
40.4018
40.4022
40.4024
50.7956
50.7931
50.788
50.7807
50.7712
50.7597
50.7462
50.7311
50.7141
50.6956
50.6754
50.6536
50.6302
50.6052
50.5786
50.5504
50.5207
50.4894
50.4565
50.4221
50.3862
50.3487
50.3096
50.2691
50.2271
50.1835
50.1385
50.092
50.0441
49.9948
49.944
49.8919
49.8384
49.7836
49.7274
49.67
49.6112
49.5512
49.49
49.4276
49.3639
49.2991
49.2332
49.1661
49.098
49.0288
48.9585
48.8873
48.815
48.7418
48.6677
48.5927
48.5168
48.4401
48.3625
48.2841
48.205
48.1252
48.0446
47.9634
47.8815
47.799
47.716
47.6323
47.5481
47.4635
47.3783
47.2928
47.2068
47.1204
47.0337
46.9466
46.8592
46.7716
46.6837
46.5957
46.5074
46.419
46.3304
46.2418
46.1531
46.0643
45.9755
45.8868
45.798
45.7094
45.6208
45.5324
45.4441
45.3559
45.268
45.1802
45.0927
45.0055
44.9186
44.832
44.7457
44.6597
44.5742
44.489
44.4043
44.32
44.2362
44.1528
44.07
43.9877
43.9059
43.8247
43.744
43.664
43.5846
43.5058
43.4276
43.3501
43.2733
43.1972
43.1218
43.0471
42.9732
42.9
42.8275
42.7559
42.685
42.6149
42.5456
42.4771
42.4095
42.3426
42.2767
42.2115
42.1473
42.0839
42.0213
41.9597
41.8989
41.839
41.7801
41.722
41.6648
41.6085
41.5531
41.4987
41.4452
41.3925
41.3408
41.2901
41.2402
41.1913
41.1432
41.0962
41.05
41.0047
40.9604
40.917
40.8745
40.8329
40.7922
40.7524
40.7136
40.6756
40.6385
40.6024
40.5671
40.5327
40.4991
40.4665
40.4347
40.4037
40.3736
40.3444
40.316
40.2884
40.2617
40.2358
40.2107
40.1864
40.1629
40.1402
40.1182
40.0971
40.0767
40.057
40.0381
40.02
40.0025
39.9858
39.9698
39.9545
39.9399
39.926
39.9127
39.9001
39.8881
39.8768
39.8661
39.856
39.8466
39.8377
39.8294
39.8217
39.8146
39.808
39.802
39.7965
39.7916
39.7871
39.7832
39.7797
39.7768
39.7743
39.7722
39.7706
39.7695
39.7688
39.7685
39.7686
39.7691
39.77
39.7713
39.7729
39.7749
39.7772
39.7799
39.7829
39.7862
39.7898
39.7938
39.798
39.8024
39.8072
39.8122
39.8174
39.8229
39.8286
39.8345
39.8406
39.8469
39.8534
39.8601
39.8669
39.874
39.8811
39.8884
39.8959
39.9034
39.9111
39.9189
39.9268
39.9348
39.9429
39.951
39.9592
39.9675
39.9758
39.9842
39.9926
40.001
40.0095
40.018
40.0264
40.0349
40.0434
40.0518
40.0603
40.0687
40.077
40.0854
40.0937
40.1019
40.1101
40.1182
40.1262
40.1342
40.1421
40.1499
40.1576
40.1652
40.1727
40.1801
40.1874
40.1946
40.2017
40.2086
40.2154
40.2221
40.2286
40.235
40.2413
40.2473
40.2533
40.2591
40.2647
40.2702
40.2755
40.2806
40.2855
40.2903
40.2949
40.2993
40.3036
40.3076
40.3115
40.3152
40.3186
40.3219
40.325
40.3279
40.3306
40.3331
40.3354
40.3375
40.3393
40.341
40.3425
40.3437
40.3448
40.3456
40.3463
40.3467
40.3469
50.7498
50.7474
50.7424
50.7352
50.7258
50.7144
50.7011
50.686
50.6691
50.6506
50.6304
50.6086
50.5852
50.5601
50.5335
50.5053
50.4755
50.4441
50.4112
50.3767
50.3407
50.3031
50.264
50.2234
50.1813
50.1376
50.0926
50.046
49.998
49.9486
49.8978
49.8456
49.7921
49.7372
49.681
49.6235
49.5647
49.5046
49.4433
49.3808
49.3171
49.2523
49.1863
49.1191
49.0509
48.9817
48.9114
48.84
48.7678
48.6945
48.6203
48.5453
48.4693
48.3925
48.3149
48.2365
48.1573
48.0774
47.9968
47.9155
47.8336
47.751
47.6679
47.5842
47.5
47.4153
47.3301
47.2445
47.1584
47.072
46.9852
46.8981
46.8107
46.723
46.6351
46.547
46.4587
46.3702
46.2816
46.1929
46.1042
46.0154
45.9265
45.8377
45.749
45.6603
45.5717
45.4832
45.3948
45.3067
45.2187
45.1309
45.0434
44.9562
44.8692
44.7825
44.6962
44.6103
44.5247
44.4395
44.3548
44.2704
44.1866
44.1032
44.0204
43.938
43.8563
43.775
43.6944
43.6143
43.5349
43.4561
43.378
43.3005
43.2237
43.1475
43.0721
42.9975
42.9235
42.8503
42.7779
42.7062
42.6353
42.5653
42.496
42.4275
42.3599
42.2931
42.2271
42.162
42.0978
42.0344
41.9719
41.9102
41.8495
41.7897
41.7307
41.6726
41.6155
41.5592
41.5039
41.4495
41.396
41.3434
41.2917
41.241
41.1912
41.1423
41.0943
41.0472
41.0011
40.9559
40.9116
40.8682
40.8258
40.7842
40.7436
40.7039
40.6651
40.6271
40.5901
40.554
40.5187
40.4844
40.4509
40.4183
40.3865
40.3557
40.3256
40.2964
40.2681
40.2406
40.2139
40.1881
40.163
40.1388
40.1153
40.0927
40.0708
40.0497
40.0294
40.0098
39.9909
39.9728
39.9554
39.9388
39.9228
39.9076
39.893
39.8791
39.8659
39.8534
39.8415
39.8302
39.8196
39.8096
39.8002
39.7914
39.7832
39.7755
39.7684
39.7619
39.756
39.7505
39.7456
39.7412
39.7373
39.7339
39.731
39.7286
39.7266
39.7251
39.724
39.7233
39.7231
39.7232
39.7238
39.7248
39.7261
39.7278
39.7298
39.7322
39.7349
39.738
39.7413
39.745
39.749
39.7532
39.7577
39.7625
39.7676
39.7728
39.7784
39.7841
39.7901
39.7962
39.8026
39.8091
39.8159
39.8228
39.8298
39.837
39.8444
39.8518
39.8595
39.8672
39.875
39.8829
39.891
39.8991
39.9073
39.9155
39.9238
39.9322
39.9406
39.949
39.9575
39.966
39.9745
39.983
39.9915
40
40.0085
40.0169
40.0254
40.0338
40.0421
40.0504
40.0587
40.0669
40.075
40.0831
40.0911
40.099
40.1068
40.1146
40.1222
40.1297
40.1372
40.1445
40.1517
40.1588
40.1657
40.1725
40.1792
40.1858
40.1922
40.1984
40.2046
40.2105
40.2163
40.222
40.2274
40.2328
40.2379
40.2429
40.2476
40.2523
40.2567
40.2609
40.265
40.2689
40.2725
40.276
40.2793
40.2824
40.2853
40.288
40.2905
40.2928
40.2949
40.2968
40.2984
40.2999
40.3012
40.3022
40.3031
40.3037
40.3041
40.3043
50.6923
50.6899
50.6849
50.6778
50.6684
50.6571
50.6437
50.6286
50.6117
50.5932
50.5729
50.551
50.5275
50.5024
50.4756
50.4473
50.4174
50.386
50.353
50.3184
50.2823
50.2446
50.2055
50.1648
50.1226
50.0789
50.0337
49.9871
49.9391
49.8896
49.8387
49.7865
49.7329
49.6779
49.6217
49.5641
49.5052
49.4451
49.3838
49.3212
49.2575
49.1925
49.1265
49.0593
48.9911
48.9217
48.8514
48.78
48.7077
48.6344
48.5602
48.485
48.409
48.3322
48.2545
48.1761
48.0969
48.0169
47.9363
47.8549
47.773
47.6904
47.6072
47.5234
47.4392
47.3544
47.2692
47.1835
47.0974
47.011
46.9241
46.837
46.7496
46.6618
46.5739
46.4857
46.3974
46.3089
46.2203
46.1315
46.0427
45.9539
45.8651
45.7762
45.6874
45.5987
45.5101
45.4216
45.3332
45.245
45.157
45.0692
44.9817
44.8944
44.8075
44.7208
44.6345
44.5485
44.4629
44.3777
44.2929
44.2086
44.1248
44.0414
43.9585
43.8762
43.7944
43.7132
43.6325
43.5525
43.4731
43.3943
43.3161
43.2387
43.1619
43.0858
43.0104
42.9357
42.8618
42.7886
42.7162
42.6445
42.5737
42.5036
42.4344
42.3659
42.2983
42.2315
42.1656
42.1005
42.0363
41.973
41.9105
41.8489
41.7882
41.7284
41.6694
41.6114
41.5543
41.4981
41.4428
41.3884
41.335
41.2824
41.2308
41.1801
41.1303
41.0815
41.0336
40.9866
40.9405
40.8953
40.8511
40.8078
40.7654
40.7239
40.6833
40.6436
40.6049
40.567
40.53
40.494
40.4588
40.4245
40.3911
40.3585
40.3268
40.296
40.266
40.2369
40.2086