/*--------------------------------*- C++ -*----------------------------------*\
| =========                 |                                                 |
| \\      /  F ield         | OpenFOAM: The Open Source CFD Toolbox           |
|  \\    /   O peration     | Version:  2212                                  |
|   \\  /    A nd           | Website:  www.openfoam.com                      |
|    \\/     M anipulation  |                                                 |
\*---------------------------------------------------------------------------*/
FoamFile
{
    version     2.0;
    format      ascii;
    arch        "LSB;label=32;scalar=64";
    class       surfaceScalarField;
    location    "850";
    object      phi;
}
// * * * * * * * * * * * * * * * * * * * * * * * * * * * * * * * * * * * * * //

dimensions      [1 0 -1 0 0 0 0];

oriented        oriented;

internalField   nonuniform List<scalar> 
408640
(
-883.444
880.932
-1741.01
856.847
-2550.3
808.646
-3297.28
746.349
-3977.84
679.935
-4596.63
618.168
-5163.99
566.753
-5692.81
528.199
-6195.69
502.269
-6683.32
487.02
-7163.69
479.769
-7642.17
477.868
-8121.89
479.109
-8604.39
481.887
-9090.15
485.154
-9579.06
488.305
-10070.7
491.043
-10564.6
493.254
-11060.1
494.929
-11556.8
496.105
-12054.3
496.838
-12552.1
497.183
-13049.9
497.19
-13547.4
496.902
-14044.3
496.355
-14540.5
495.578
-15035.7
494.596
-15529.7
493.429
-16022.4
492.092
-16513.6
490.6
-17003.2
488.964
-17491
487.195
-17976.9
485.301
-18460.8
483.29
-18942.6
481.166
-19422.1
478.938
-19899.3
476.608
-20374.1
474.181
-20846.4
471.662
-21316
469.054
-21783
466.359
-22247.2
463.581
-22708.5
460.722
-23166.9
457.785
-23622.2
454.771
-24074.5
451.684
-24523.6
448.524
-24969.5
445.294
-25412.1
441.995
-25851.3
438.63
-26287.1
435.198
-26719.4
431.703
-27148.1
428.145
-27573.3
424.526
-27994.7
420.847
-28412.4
417.11
-28826.3
413.315
-29236.3
409.464
-29642.5
405.559
-30044.6
401.6
-30442.8
397.589
-30836.9
393.526
-31226.9
389.414
-31612.7
385.252
-31994.4
381.043
-32371.7
376.788
-32744.8
372.487
-33113.5
368.142
-33477.8
363.753
-33837.7
359.323
-34193.1
354.852
-34544
350.34
-34890.4
345.791
-35232.1
341.203
-35569.3
336.579
-35901.7
331.92
-36229.5
327.226
-36552.6
322.499
-36870.9
317.74
-37184.4
312.95
-37493
308.13
-37796.8
303.281
-38095.8
298.404
-38389.8
293.501
-38678.9
288.572
-38963.1
283.618
-39242.3
278.641
-39516.4
273.642
-39785.6
268.621
-40049.7
263.58
-40308.7
258.52
-40562.7
253.442
-40811.6
248.347
-41055.3
243.235
-41293.9
238.109
-41527.4
232.969
-41755.7
227.815
-41978.9
222.65
-42196.8
217.474
-42409.6
212.288
-42617.2
207.094
-42819.6
201.891
-43016.8
196.682
-43208.7
191.467
-43395.4
186.247
-43576.9
181.023
-43753.2
175.796
-43924.3
170.567
-44090.1
165.338
-44250.6
160.108
-44406
154.879
-44556.1
149.652
-44701
144.427
-44840.6
139.206
-44975
133.99
-45104.3
128.779
-45228.3
123.575
-45347.1
118.377
-45460.7
113.188
-45569.1
108.007
-45672.4
102.836
-45770.5
97.676
-45863.4
92.5269
-45951.2
87.3899
-46033.9
82.2658
-46111.4
77.1554
-46183.9
72.0593
-46251.3
66.9785
-46313.6
61.9136
-46370.8
56.8653
-46423
51.8343
-46470.2
46.8214
-46512.4
41.8273
-46549.6
36.8525
-46581.9
31.8978
-46609.2
26.9638
-46631.6
22.0511
-46649.1
17.1604
-46661.7
12.2922
-46669.5
7.44721
-46672.5
2.62593
-46670.6
-2.17105
-46664
-6.9432
-46652.6
-11.69
-46636.5
-16.4108
-46615.7
-21.1053
-46590.2
-25.7728
-46560.1
-30.413
-46525.3
-35.0253
-46486
-39.6094
-46442.1
-44.1646
-46393.7
-48.6907
-46340.8
-53.1873
-46283.4
-57.6538
-46221.5
-62.09
-46155.3
-66.4954
-46084.7
-70.8698
-46009.7
-75.2127
-45930.4
-79.5239
-45846.8
-83.803
-45759
-88.0496
-45666.9
-92.2637
-45570.7
-96.4447
-45470.3
-100.593
-45365.8
-104.707
-45257.1
-108.788
-45144.5
-112.834
-45027.8
-116.847
-44907.2
-120.825
-44782.5
-124.769
-44654
-128.678
-44521.6
-132.552
-44385.4
-136.391
-44245.3
-140.195
-44101.5
-143.963
-43953.9
-147.697
-43802.6
-151.394
-43647.7
-155.056
-43489.1
-158.683
-43326.9
-162.273
-43161.2
-165.828
-42991.9
-169.346
-42819.2
-172.829
-42642.9
-176.276
-42463.3
-179.687
-42280.3
-183.062
-42094
-186.4
-41904.3
-189.703
-41711.4
-192.97
-41515.2
-196.2
-41315.8
-199.395
-41113.3
-202.554
-40907.6
-205.677
-40698.9
-208.764
-40487
-211.816
-40272.2
-214.832
-40054.4
-217.812
-39833.6
-220.757
-39609.9
-223.666
-39383.3
-226.54
-39153.9
-229.379
-38921.6
-232.182
-38686.6
-234.951
-38448.9
-237.685
-38208.4
-240.385
-37965.3
-243.049
-37719.5
-245.68
-37471.2
-248.276
-37220.2
-250.838
-36966.8
-253.366
-36710.8
-255.86
-36452.4
-258.321
-36191.5
-260.748
-35928.2
-263.142
-35662.6
-265.503
-35394.6
-267.831
-35124.3
-270.126
-34851.8
-272.389
-34577
-274.62
-34300
-276.818
-34020.8
-278.985
-33739.5
-281.12
-33456.1
-283.224
-33170.6
-285.296
-32883.1
-287.338
-32593.5
-289.348
-32302
-291.328
-32008.5
-293.278
-31713
-295.198
-31415.7
-297.087
-31116.5
-298.947
-30815.5
-300.778
-30512.7
-302.579
-30208
-304.352
-29901.7
-306.095
-29593.6
-307.811
-29283.8
-309.498
-28972.4
-311.156
-28659.3
-312.788
-28344.6
-314.391
-28028.3
-315.968
-27710.5
-317.517
-27391.2
-319.039
-27070.3
-320.535
-26748
-322.004
-26424.2
-323.448
-26099
-324.865
-25772.4
-326.257
-25444.4
-327.623
-25115.1
-328.964
-24784.5
-330.28
-24452.5
-331.572
-24119.3
-332.839
-23784.9
-334.081
-23449.2
-335.3
-23112.3
-336.495
-22774.2
-337.666
-22435
-338.814
-22094.7
-339.938
-21753.2
-341.04
-21410.7
-342.119
-21067.1
-343.175
-20722.5
-344.21
-20376.8
-345.222
-20030.2
-346.212
-19682.6
-347.181
-19334
-348.128
-18984.5
-349.054
-18634.1
-349.959
-18282.8
-350.843
-17930.6
-351.706
-17577.6
-352.549
-17223.8
-353.371
-16869.2
-354.173
-16513.7
-354.956
-16157.5
-355.718
-15800.6
-356.462
-15442.9
-357.185
-15084.6
-357.89
-14725.5
-358.575
-14365.7
-359.241
-14005.4
-359.889
-13644.3
-360.518
-13282.7
-361.129
-12920.5
-361.721
-12557.7
-362.296
-12194.3
-362.852
-11830.4
-363.39
-11466
-363.911
-11101
-364.414
-10735.6
-364.9
-10369.7
-365.369
-10003.4
-365.82
-9636.58
-366.254
-9269.38
-366.672
-8901.77
-367.073
-8533.77
-367.457
-8165.41
-367.825
-7796.69
-368.176
-7427.63
-368.511
-7058.25
-368.83
-6688.57
-369.134
-6318.6
-369.421
-5948.36
-369.693
-5577.86
-369.949
-5207.11
-370.19
-4836.14
-370.415
-4464.96
-370.625
-4093.58
-370.82
-3722.03
-370.999
-3350.3
-371.163
-2978.43
-371.311
-2606.43
-371.444
-2234.31
-371.561
-1862.08
-371.662
-1489.77
-371.748
-1117.39
-371.817
-744.958
-371.87
-372.488
-371.906
-371.925
-869.131
1749.34
-1714.53
1701.57
-2514.67
1608.15
-3256.04
1487.08
-3934.54
1357.81
-4554.15
1237.16
-5124.36
1136.34
-5657.11
1060.34
-6164.31
1008.85
-6656.1
978.206
-7140.19
963.254
-7621.8
958.864
-8104.04
960.742
-8588.5
965.741
-9075.75
971.796
-9565.76
977.707
-10058.2
982.869
-10552.6
987.046
-11048.5
990.205
-11545.4
992.411
-12042.9
993.762
-12540.7
994.362
-13038.4
994.305
-13535.8
993.674
-14032.6
992.536
-14528.6
990.947
-15023.5
988.953
-15517.3
986.594
-16009.7
983.901
-16500.6
980.901
-16989.9
977.616
-17477.3
974.067
-17962.9
970.269
-18446.5
966.238
-18927.9
961.985
-19407.1
957.522
-19883.9
952.857
-20358.3
948.001
-20830.2
942.959
-21299.5
937.739
-21766.1
932.348
-22229.9
926.79
-22690.9
921.071
-23148.9
915.196
-23603.9
909.168
-24055.8
902.993
-24504.5
896.673
-24950
890.213
-25392.2
883.616
-25831.1
876.885
-26266.5
870.023
-26698.4
863.033
-27126.8
855.918
-27551.5
848.681
-27972.6
841.324
-28389.9
833.851
-28803.4
826.263
-29213.1
818.563
-29618.9
810.753
-30020.7
802.837
-30418.5
794.816
-30812.2
786.693
-31201.9
778.47
-31587.3
770.15
-31968.6
761.734
-32345.6
753.225
-32718.3
744.625
-33086.7
735.937
-33450.7
727.163
-33810.2
718.304
-34165.3
709.364
-34515.9
700.344
-34861.9
691.247
-35203.3
682.075
-35540.1
672.83
-35872.3
663.514
-36199.7
654.129
-36522.4
644.678
-36840.4
635.163
-37153.6
625.585
-37462
615.948
-37765.5
606.254
-38064.1
596.503
-38357.9
586.7
-38646.7
576.845
-38930.5
566.941
-39209.4
556.991
-39483.3
546.995
-39752.1
536.957
-40016
526.879
-40274.7
516.762
-40528.4
506.609
-40777
496.422
-41020.5
486.203
-41258.8
475.954
-41492.1
465.677
-41720.1
455.374
-41943
445.048
-42160.7
434.699
-42373.3
424.332
-42580.6
413.946
-42782.8
403.545
-42979.7
393.13
-43171.4
382.704
-43357.9
372.268
-43539.2
361.824
-43715.2
351.375
-43886.1
340.921
-44051.7
330.466
-44212
320.01
-44367.2
309.557
-44517.1
299.107
-44661.8
288.662
-44801.2
278.225
-44935.5
267.796
-45064.5
257.379
-45188.4
246.974
-45307
236.583
-45420.4
226.209
-45528.7
215.852
-45631.8
205.515
-45729.7
195.198
-45822.5
184.904
-45910.2
174.635
-45992.7
164.391
-46070.1
154.175
-46142.5
143.987
-46209.7
133.83
-46271.9
123.705
-46329
113.613
-46381.1
103.555
-46428.2
93.5339
-46470.3
83.5501
-46507.4
73.6051
-46539.5
63.7002
-46566.8
53.8367
-46589.1
44.016
-46606.5
34.2391
-46619
24.5074
-46626.8
14.8219
-46629.6
5.18395
-46627.7
-4.40544
-46621
-13.9451
-46609.6
-23.4341
-46593.4
-32.8712
-46572.6
-42.2556
-46547.1
-51.5861
-46516.9
-60.8619
-46482.1
-70.0819
-46442.8
-79.2454
-46398.9
-88.3514
-46350.4
-97.399
-46297.5
-106.387
-46240.1
-115.316
-46178.2
-124.184
-46112
-132.99
-46041.4
-141.734
-45966.4
-150.416
-45887.1
-159.034
-45803.5
-167.587
-45715.7
-176.076
-45623.7
-184.5
-45527.5
-192.857
-45427.1
-201.149
-45322.7
-209.373
-45214.1
-217.53
-45101.5
-225.619
-44984.9
-233.64
-44864.3
-241.592
-44739.7
-249.475
-44611.3
-257.288
-44478.9
-265.032
-44342.8
-272.706
-44202.8
-280.31
-44059
-287.843
-43911.5
-295.305
-43760.4
-302.696
-43605.5
-310.015
-43447
-317.264
-43285
-324.441
-43119.3
-331.546
-42950.2
-338.579
-42777.5
-345.541
-42601.5
-352.43
-42422
-359.248
-42239.1
-365.993
-42052.9
-372.667
-41863.3
-379.268
-41670.5
-385.798
-41474.5
-392.255
-41275.3
-398.641
-41072.9
-404.955
-40867.4
-411.197
-40658.8
-417.368
-40447.1
-423.467
-40232.5
-429.495
-40014.8
-435.452
-39794.2
-441.337
-39570.7
-447.152
-39344.3
-452.897
-39115.1
-458.571
-38883
-464.175
-38648.2
-469.709
-38410.6
-475.173
-38170.4
-480.568
-37927.5
-485.894
-37681.9
-491.152
-37433.7
-496.34
-37183
-501.461
-36929.8
-506.514
-36674
-511.499
-36415.8
-516.417
-36155.2
-521.268
-35892.1
-526.053
-35626.7
-530.772
-35359
-535.425
-35088.9
-540.013
-34816.6
-544.535
-34542.1
-548.994
-34265.3
-553.388
-33986.4
-557.718
-33705.4
-561.986
-33422.2
-566.19
-33137
-570.332
-32849.7
-574.412
-32560.4
-578.43
-32269.1
-582.388
-31975.9
-586.284
-31680.8
-590.121
-31383.7
-593.897
-31084.8
-597.615
-30784.1
-601.273
-30481.5
-604.874
-30177.2
-608.416
-29871.1
-611.901
-29563.3
-615.329
-29253.8
-618.7
-28942.7
-622.016
-28629.9
-625.276
-28315.5
-628.48
-27999.6
-631.631
-27682.1
-634.727
-27363
-637.769
-27042.5
-640.759
-26720.4
-643.695
-26397
-646.58
-26072.1
-649.412
-25745.8
-652.194
-25418.2
-654.924
-25089.2
-657.604
-24758.9
-660.235
-24427.2
-662.816
-24094.4
-665.348
-23760.2
-667.831
-23424.9
-670.266
-23088.3
-672.654
-22750.6
-674.995
-22411.8
-677.289
-22071.8
-679.536
-21730.7
-681.738
-21388.5
-683.894
-21045.2
-686.006
-20700.9
-688.072
-20355.6
-690.095
-20009.4
-692.074
-19662.1
-694.01
-19313.9
-695.903
-18964.7
-697.753
-18614.7
-699.561
-18263.7
-701.328
-17911.9
-703.053
-17559.3
-704.737
-17205.8
-706.381
-16851.5
-707.984
-16496.5
-709.548
-16140.6
-711.072
-15784.1
-712.557
-15426.8
-714.003
-15068.8
-715.411
-14710.1
-716.78
-14350.7
-718.112
-13990.7
-719.407
-13630
-720.664
-13268.8
-721.884
-12906.9
-723.068
-12544.5
-724.216
-12181.5
-725.327
-11818
-726.403
-11453.9
-727.444
-11089.4
-728.449
-10724.3
-729.42
-10358.8
-730.356
-9992.86
-731.258
-9626.46
-732.126
-9259.63
-732.961
-8892.41
-733.761
-8524.8
-734.529
-8156.82
-735.264
-7788.49
-735.966
-7419.82
-736.636
-7050.83
-737.274
-6681.54
-737.88
-6311.95
-738.455
-5942.1
-738.998
-5571.99
-739.51
-5201.63
-739.991
-4831.05
-740.441
-4460.26
-740.86
-4089.27
-741.249
-3718.11
-741.607
-3346.78
-741.935
-2975.3
-742.231
-2603.69
-742.497
-2231.95
-742.731
-1860.12
-742.934
-1488.2
-743.104
-1116.22
-743.242
-744.176
-743.348
-372.1
-743.42
-743.462
-850.389
2599.08
-1678.85
2529.38
-2465.97
2394.63
-3199.27
2219.75
-3874.65
2032.57
-4495.3
1857.19
-5069.49
1709.93
-5607.94
1598.18
-6121.46
1521.76
-6619.44
1475.57
-7109.1
1452.31
-7595.46
1444.61
-8081.59
1446.27
-8569.15
1452.69
-9058.8
1460.84
-9550.65
1468.95
-10044.5
1476.08
-10539.9
1481.87
-11036.6
1486.24
-11534
1489.26
-12031.9
1491.06
-12529.9
1491.79
-13027.8
1491.56
-13525.2
1490.5
-14022
1488.71
-14517.9
1486.25
-15012.8
1483.2
-15506.4
1479.61
-15998.6
1475.53
-16489.3
1471
-16978.4
1466.04
-17465.6
1460.7
-17950.9
1454.98
-18434.2
1448.91
-18915.3
1442.52
-19394.2
1435.81
-19870.8
1428.81
-20344.9
1421.51
-20816.5
1413.94
-21285.4
1406.11
-21751.7
1398.01
-22215.2
1389.67
-22675.8
1381.09
-23133.4
1372.27
-23588.1
1363.23
-24039.7
1353.96
-24488.1
1344.48
-24933.2
1334.79
-25375.1
1324.89
-25813.6
1314.8
-26248.7
1304.5
-26680.3
1294.02
-27108.3
1283.35
-27532.7
1272.49
-27953.4
1261.46
-28370.4
1250.25
-28783.6
1238.87
-29192.9
1227.32
-29598.3
1215.61
-29999.8
1203.73
-30397.3
1191.71
-30790.7
1179.52
-31180
1167.19
-31565.1
1154.71
-31946.1
1142.09
-32322.7
1129.33
-32695.1
1116.43
-33063.1
1103.4
-33426.8
1090.25
-33786
1076.96
-34140.8
1063.55
-34491
1050.03
-34836.7
1036.39
-35177.8
1022.63
-35514.3
1008.77
-35846.2
994.796
-36173.3
980.722
-36495.7
966.55
-36813.4
952.281
-37126.3
937.919
-37434.3
923.467
-37737.6
908.929
-38035.9
894.308
-38329.3
879.607
-38617.9
864.829
-38901.4
849.978
-39180
835.057
-39453.6
820.068
-39722.2
805.016
-39985.8
789.903
-40244.3
774.732
-40497.7
759.508
-40746
744.232
-40989.2
728.908
-41227.3
713.54
-41460.3
698.129
-41688.1
682.68
-41910.7
667.196
-42128.2
651.679
-42340.5
636.132
-42547.6
620.56
-42749.5
604.963
-42946.2
589.347
-43137.7
573.713
-43324
558.064
-43505
542.404
-43680.9
526.735
-43851.5
511.061
-44016.9
495.384
-44177
479.706
-44332
464.031
-44481.7
448.362
-44626.2
432.701
-44765.4
417.051
-44899.5
401.415
-45028.4
385.794
-45152
370.193
-45270.5
354.613
-45383.8
339.058
-45491.9
323.529
-45594.8
308.029
-45692.6
292.56
-45785.2
277.126
-45872.7
261.728
-45955.1
246.368
-46032.4
231.05
-46104.5
215.775
-46171.6
200.546
-46233.7
185.364
-46290.7
170.232
-46342.7
155.153
-46389.6
140.127
-46431.6
125.158
-46468.6
110.247
-46500.6
95.3961
-46527.8
80.6074
-46550
65.8828
-46567.3
51.224
-46579.8
36.6329
-46587.4
22.1113
-46590.2
7.66093
-46588.2
-6.71658
-46581.4
-21.0196
-46569.9
-35.2464
-46553.7
-49.3955
-46532.8
-63.4654
-46507.2
-77.4546
-46477
-91.3617
-46442.2
-105.185
-46402.8
-118.924
-46358.9
-132.576
-46310.4
-146.141
-46257.4
-159.617
-46200
-173.003
-46138.1
-186.299
-46071.9
-199.502
-46001.2
-212.611
-45926.2
-225.627
-45846.9
-238.547
-45763.4
-251.371
-45675.6
-264.098
-45583.6
-276.727
-45487.4
-289.257
-45387
-301.687
-45282.6
-314.017
-45174
-326.246
-45061.5
-338.373
-44944.9
-350.398
-44824.3
-362.32
-44699.8
-374.138
-44571.4
-385.852
-44439.1
-397.461
-44303
-408.966
-44163.1
-420.365
-44019.4
-431.658
-43872
-442.845
-43720.9
-453.925
-43566.1
-464.899
-43407.7
-475.765
-43245.7
-486.524
-43080.1
-497.176
-42911.1
-507.72
-42738.5
-518.156
-42562.6
-528.484
-42383.2
-538.705
-42200.4
-548.817
-42014.3
-558.821
-41824.9
-568.718
-41632.2
-578.506
-41436.3
-588.187
-41237.2
-597.76
-41035
-607.225
-40829.6
-616.582
-40621.1
-625.833
-40409.6
-634.976
-40195.1
-644.012
-39977.6
-652.941
-39757.1
-661.765
-39533.8
-670.482
-39307.5
-679.093
-39078.5
-687.598
-38846.6
-695.999
-38611.9
-704.295
-38374.6
-712.486
-38134.5
-720.574
-37891.7
-728.557
-37646.4
-736.438
-37398.4
-744.216
-37147.9
-751.892
-36894.8
-759.466
-36639.3
-766.939
-36381.2
-774.311
-36120.8
-781.583
-35858
-788.755
-35592.8
-795.829
-35325.3
-802.804
-35055.4
-809.681
-34783.4
-816.46
-34509
-823.143
-34232.5
-829.73
-33953.8
-836.221
-33673
-842.617
-33390.1
-848.919
-33105.1
-855.128
-32818.1
-861.244
-32529
-867.267
-32238
-873.199
-31945
-879.04
-31650.1
-884.79
-31353.3
-890.451
-31054.7
-896.023
-30754.2
-901.507
-30451.9
-906.903
-30147.9
-912.213
-29842.1
-917.437
-29534.5
-922.575
-29225.3
-927.628
-28914.5
-932.598
-28602
-937.484
-28287.9
-942.288
-27972.2
-947.009
-27654.9
-951.65
-27336.2
-956.21
-27015.9
-960.691
-26694.2
-965.093
-26371
-969.416
-26046.5
-973.662
-25720.5
-977.83
-25393.1
-981.923
-25064.4
-985.94
-24734.4
-989.883
-24403.1
-993.751
-24070.6
-997.546
-23736.7
-1001.27
-23401.7
-1004.92
-23065.5
-1008.5
-22728.1
-1012.01
-22389.5
-1015.44
-22049.9
-1018.81
-21709.1
-1022.11
-21367.2
-1025.34
-21024.3
-1028.51
-20680.3
-1031.61
-20335.4
-1034.64
-19989.4
-1037.6
-19642.5
-1040.5
-19294.6
-1043.34
-18945.8
-1046.11
-18596.1
-1048.83
-18245.5
-1051.47
-17894
-1054.06
-17541.7
-1056.58
-17188.6
-1059.05
-16834.7
-1061.45
-16480
-1063.79
-16124.5
-1066.08
-15768.2
-1068.3
-15411.3
-1070.47
-15053.6
-1072.58
-14695.3
-1074.63
-14336.3
-1076.63
-13976.6
-1078.57
-13616.3
-1080.45
-13255.4
-1082.28
-12894
-1084.06
-12531.9
-1085.78
-12169.3
-1087.44
-11806.1
-1089.05
-11442.4
-1090.61
-11078.2
-1092.12
-10713.5
-1093.58
-10348.4
-1094.98
-9982.78
-1096.33
-9616.74
-1097.63
-9250.29
-1098.88
-8883.43
-1100.08
-8516.19
-1101.23
-8148.58
-1102.33
-7780.62
-1103.39
-7412.32
-1104.39
-7043.7
-1105.35
-6674.78
-1106.25
-6305.57
-1107.12
-5936.09
-1107.93
-5566.35
-1108.7
-5196.37
-1109.42
-4826.17
-1110.09
-4455.75
-1110.72
-4085.14
-1111.3
-3714.35
-1111.84
-3343.39
-1112.33
-2972.29
-1112.78
-2601.05
-1113.17
-2229.7
-1113.53
-1858.24
-1113.83
-1486.7
-1114.08
-1115.09
-1114.29
-743.422
-1114.45
-371.72
-1114.56
-1114.62
-825.302
3423.74
-1631.25
3334.69
-2401.01
3163.75
-3123.58
2941.69
-3794.87
2703.23
-4417.03
2478.74
-4996.77
2289.05
-5543.1
2143.9
-6065.39
2043.44
-6571.96
1981.54
-7069.41
1949.16
-7562.45
1937.04
-8054.08
1937.29
-8546.05
1944.05
-9039.18
1953.37
-9533.74
1962.9
-10029.7
1971.39
-10526.7
1978.31
-11024.6
1983.51
-11523
1987.06
-12021.6
1989.08
-12520.2
1989.75
-13018.4
1989.21
-13516.2
1987.62
-14013.1
1985.07
-14509.1
1981.67
-15004
1977.5
-15497.7
1972.63
-15989.9
1967.12
-16480.5
1961.02
-16969.4
1954.36
-17456.5
1947.19
-17941.6
1939.53
-18424.7
1931.41
-18905.7
1922.86
-19384.4
1913.9
-19860.7
1904.53
-20334.6
1894.79
-20805.9
1884.68
-21274.6
1874.22
-21740.6
1863.42
-22203.9
1852.29
-22664.2
1840.84
-23121.6
1829.08
-23576
1817.01
-24027.3
1804.65
-24475.4
1792.01
-24920.3
1779.08
-25361.8
1765.88
-25800.1
1752.42
-26234.8
1738.69
-26666.1
1724.71
-27093.8
1710.48
-27517.9
1696.01
-27938.4
1681.29
-28355
1666.35
-28767.9
1651.17
-29177
1635.78
-29582.1
1620.16
-29983.3
1604.33
-30380.4
1588.29
-30773.6
1572.05
-31162.5
1555.61
-31547.4
1538.98
-31928
1522.15
-32304.4
1505.14
-32676.5
1487.94
-33044.2
1470.57
-33407.6
1453.03
-33766.5
1435.32
-34120.9
1417.45
-34470.9
1399.42
-34816.3
1381.23
-35157.1
1362.89
-35493.3
1344.41
-35824.9
1325.79
-36151.7
1307.03
-36473.9
1288.13
-36791.2
1269.11
-37103.8
1249.97
-37411.6
1230.7
-37714.5
1211.32
-38012.6
1191.83
-38305.8
1172.24
-38594
1152.54
-38877.3
1132.74
-39155.6
1112.85
-39429
1092.87
-39697.3
1072.81
-39960.6
1052.66
-40218.8
1032.44
-40471.9
1012.14
-40720
991.782
-40963
971.356
-41200.8
950.87
-41433.5
930.329
-41661.1
909.736
-41883.5
889.096
-42100.7
868.412
-42312.8
847.69
-42519.6
826.932
-42721.3
806.143
-42917.8
785.327
-43109
764.488
-43295.1
743.63
-43475.9
722.757
-43651.5
701.872
-43821.9
680.979
-43987
660.082
-44147
639.186
-44301.7
618.293
-44451.2
597.408
-44595.5
576.533
-44734.6
555.673
-44868.4
534.832
-44997.1
514.012
-45120.5
493.218
-45238.8
472.452
-45351.9
451.718
-45459.8
431.02
-45562.6
410.361
-45660.2
389.744
-45752.6
369.172
-45840
348.649
-45922.2
328.178
-45999.3
307.761
-46071.3
287.402
-46138.2
267.104
-46200.1
246.869
-46257
226.702
-46308.8
206.603
-46355.6
186.577
-46397.5
166.626
-46434.3
146.753
-46466.2
126.96
-46493.2
107.25
-46515.3
87.6248
-46532.5
68.088
-46544.9
48.6414
-46552.4
29.2874
-46555.1
10.0284
-46553
-9.13335
-46546.1
-28.1957
-46534.5
-47.1566
-46518.2
-66.0138
-46497.2
-84.7653
-46471.5
-103.409
-46441.3
-121.944
-46406.4
-140.367
-46366.9
-158.676
-46322.9
-176.871
-46274.3
-194.949
-46221.3
-212.909
-46163.8
-230.749
-46101.9
-248.467
-46035.6
-266.063
-45964.9
-283.534
-45889.9
-300.879
-45810.5
-318.098
-45726.9
-335.188
-45639.1
-352.149
-45547
-368.979
-45450.8
-385.677
-45350.5
-402.242
-45246
-418.674
-45137.5
-434.971
-45024.9
-451.132
-44908.3
-467.157
-44787.7
-483.044
-44663.2
-498.793
-44534.8
-514.404
-44402.6
-529.875
-44266.5
-545.206
-44126.6
-560.396
-43982.9
-575.445
-43835.5
-590.353
-43684.5
-605.118
-43529.7
-619.741
-43371.4
-634.222
-43209.4
-648.559
-43043.9
-662.753
-42874.9
-676.804
-42702.5
-690.711
-42526.5
-704.474
-42347.2
-718.093
-42164.5
-731.568
-41978.5
-744.899
-41789.2
-758.086
-41596.6
-771.13
-41400.8
-784.029
-41201.8
-796.785
-40999.6
-809.398
-40794.3
-821.867
-40586
-834.193
-40374.6
-846.376
-40160.1
-858.417
-39942.8
-870.315
-39722.4
-882.072
-39499.2
-893.687
-39273.1
-905.161
-39044.1
-916.495
-38812.4
-927.688
-38577.9
-938.742
-38340.7
-949.656
-38100.7
-960.432
-37858.1
-971.07
-37612.9
-981.571
-37365.1
-991.935
-37114.7
-1002.16
-36861.8
-1012.25
-36606.5
-1022.21
-36348.6
-1032.03
-36088.4
-1041.72
-35825.7
-1051.28
-35560.7
-1060.7
-35293.3
-1070
-35023.7
-1079.16
-34751.8
-1088.19
-34477.7
-1097.1
-34201.4
-1105.87
-33922.9
-1114.52
-33642.3
-1123.04
-33359.6
-1131.44
-33074.8
-1139.71
-32788
-1147.86
-32499.2
-1155.89
-32208.3
-1163.79
-31915.6
-1171.57
-31620.9
-1179.23
-31324.4
-1186.77
-31025.9
-1194.2
-30725.7
-1201.5
-30423.7
-1208.69
-30119.8
-1215.77
-29814.3
-1222.73
-29507
-1229.57
-29198.1
-1236.31
-28887.4
-1242.93
-28575.2
-1249.44
-28261.4
-1255.84
-27945.9
-1262.13
-27629
-1268.31
-27310.5
-1274.39
-26990.5
-1280.35
-26669
-1286.22
-26346.1
-1291.98
-26021.8
-1297.63
-25696.1
-1303.19
-25369.1
-1308.64
-25040.7
-1313.99
-24710.9
-1319.24
-24379.9
-1324.4
-24047.7
-1329.45
-23714.1
-1334.41
-23379.4
-1339.27
-23043.5
-1344.04
-22706.4
-1348.72
-22368.1
-1353.3
-22028.7
-1357.78
-21688.3
-1362.18
-21346.7
-1366.49
-21004.1
-1370.7
-20660.5
-1374.83
-20315.8
-1378.87
-19970.2
-1382.82
-19623.6
-1386.68
-19276
-1390.46
-18927.5
-1394.16
-18578.1
-1397.77
-18227.9
-1401.29
-17876.7
-1404.74
-17524.7
-1408.1
-17171.9
-1411.38
-16818.3
-1414.58
-16464
-1417.71
-16108.8
-1420.75
-15752.9
-1423.71
-15396.3
-1426.6
-15039
-1429.41
-14681
-1432.15
-14322.3
-1434.8
-13963
-1437.39
-13603.1
-1439.9
-13242.5
-1442.33
-12881.4
-1444.7
-12519.6
-1446.99
-12157.4
-1449.21
-11794.5
-1451.36
-11431.2
-1453.43
-11067.4
-1455.44
-10703
-1457.38
-10338.2
-1459.25
-9972.99
-1461.05
-9607.31
-1462.78
-9241.21
-1464.45
-8874.71
-1466.05
-8507.82
-1467.58
-8140.57
-1469.05
-7772.97
-1470.45
-7405.03
-1471.79
-7036.77
-1473.06
-6668.21
-1474.27
-6299.37
-1475.42
-5930.25
-1476.5
-5560.87
-1477.52
-5191.25
-1478.48
-4821.41
-1479.38
-4451.36
-1480.22
-4081.11
-1480.99
-3710.69
-1481.71
-3340.1
-1482.36
-2969.36
-1482.96
-2598.49
-1483.49
-2227.5
-1483.95
-1856.41
-1484.36
-1485.23
-1484.7
-1113.99
-1484.98
-742.692
-1485.19
-371.357
-1485.33
-1485.41
-801.943
4225.04
-1586.73
4118.83
-2339.92
3916.3
-3051.84
3652.98
-3718.51
3369.27
-4341.29
3100.9
-4925.51
2872.66
-5478.7
2696.48
-6008.92
2573.05
-6523.5
2495.51
-7028.38
2453.43
-7527.94
2435.99
-8025.09
2433.84
-8521.6
2439.95
-9018.4
2449.57
-9515.9
2459.79
-10014.2
2469.04
-10513.1
2476.61
-11012.4
2482.26
-11512
2486.01
-12011.5
2488.02
-12510.8
2488.43
-13009.6
2487.43
-13507.8
2485.16
-14005
2481.75
-14501.3
2477.32
-14996.4
2471.97
-15490.1
2465.76
-15982.3
2458.76
-16473
2451.05
-16961.9
2442.65
-17448.9
2433.62
-17934
2424
-18417
2413.81
-18897.8
2403.08
-19376.3
2391.84
-19852.5
2380.1
-20326.2
2367.9
-20797.4
2355.24
-21265.9
2342.15
-21731.7
2328.63
-22194.7
2314.7
-22654.8
2300.37
-23112
2285.66
-23566.1
2270.57
-24017.2
2255.11
-24465.1
2239.29
-24909.7
2223.13
-25351
2206.63
-25789
2189.79
-26223.5
2172.63
-26654.5
2155.15
-27082
2137.36
-27505.8
2119.26
-27926
2100.87
-28342.4
2082.18
-28755
2063.22
-29163.8
2043.97
-29568.7
2024.45
-29969.6
2004.66
-30366.5
1984.62
-30759.3
1964.31
-31148.1
1943.76
-31532.6
1922.97
-31913
1901.94
-32289.1
1880.67
-32660.9
1859.18
-33028.4
1837.47
-33391.4
1815.55
-33750.1
1793.41
-34104.3
1771.08
-34454
1748.54
-34799.1
1725.81
-35139.7
1702.89
-35475.6
1679.79
-35806.9
1656.51
-36133.5
1633.07
-36455.3
1609.46
-36772.5
1585.68
-37084.8
1561.76
-37392.3
1537.68
-37695
1513.46
-37992.8
1489.1
-38285.7
1464.61
-38573.7
1439.99
-38856.7
1415.25
-39134.8
1390.39
-39407.9
1365.42
-39676
1340.35
-39939
1315.17
-40197
1289.9
-40449.9
1264.54
-40697.7
1239.09
-40940.4
1213.56
-41178
1187.96
-41410.5
1162.29
-41637.8
1136.55
-41860
1110.76
-42077
1084.91
-42288.8
1059.02
-42495.4
1033.07
-42696.9
1007.1
-42893.1
981.082
-43084.1
955.04
-43270
928.974
-43450.6
902.889
-43626
876.79
-43796.1
850.682
-43961.1
824.568
-44120.8
798.455
-44275.3
772.346
-44424.6
746.247
-44568.7
720.162
-44707.6
694.095
-44841.2
668.051
-44969.7
642.034
-45093
616.049
-45211
590.1
-45323.9
564.191
-45431.7
538.327
-45534.2
512.511
-45631.7
486.748
-45723.9
461.042
-45811.1
435.396
-45893.1
409.815
-45970.1
384.303
-46041.9
358.863
-46108.7
333.499
-46170.4
308.215
-46227.1
283.014
-46278.8
257.9
-46325.5
232.877
-46367.2
207.947
-46403.9
183.114
-46435.7
158.382
-46462.5
133.754
-46484.5
109.232
-46501.5
84.8205
-46513.8
60.5217
-46521.1
36.3387
-46523.7
12.2745
-46521.5
-11.6681
-46514.5
-35.4865
-46502.8
-59.1779
-46486.4
-82.7397
-46465.3
-106.169
-46439.5
-129.465
-46409.1
-152.623
-46374.1
-175.642
-46334.6
-198.519
-46290.5
-221.252
-46241.8
-243.84
-46188.7
-266.28
-46131.2
-288.57
-46069.2
-310.708
-46002.8
-332.692
-45932
-354.521
-45857
-376.193
-45777.6
-397.706
-45693.9
-419.059
-45606
-440.249
-45513.9
-461.277
-45417.7
-482.139
-45317.3
-502.836
-45212.8
-523.365
-45104.2
-543.726
-44991.6
-563.917
-44875
-583.938
-44754.4
-603.787
-44629.9
-623.463
-44501.5
-642.966
-44369.2
-662.295
-44233.1
-681.448
-44093.2
-700.426
-43949.6
-719.227
-43802.2
-737.852
-43651.1
-756.299
-43496.4
-774.568
-43338.1
-792.658
-43176.2
-810.57
-43010.7
-828.302
-42841.7
-845.855
-42669.3
-863.229
-42493.4
-880.423
-42314.1
-897.437
-42131.5
-914.271
-41945.5
-930.925
-41756.2
-947.399
-41563.7
-963.694
-41368
-979.808
-41169
-995.743
-40966.9
-1011.5
-40761.7
-1027.08
-40553.5
-1042.47
-40342.1
-1057.69
-40127.8
-1072.73
-39910.5
-1087.6
-39690.3
-1102.28
-39467.1
-1116.79
-39241.1
-1131.13
-39012.3
-1145.29
-38780.7
-1159.27
-38546.3
-1173.08
-38309.1
-1186.71
-38069.3
-1200.17
-37826.9
-1213.46
-37581.8
-1226.58
-37334.1
-1239.52
-37083.9
-1252.3
-36831.1
-1264.9
-36575.9
-1277.34
-36318.2
-1289.61
-36058.1
-1301.71
-35795.6
-1313.65
-35530.7
-1325.42
-35263.5
-1337.03
-34994.1
-1348.48
-34722.3
-1359.76
-34448.4
-1370.88
-34172.2
-1381.84
-33893.9
-1392.65
-33613.5
-1403.29
-33331
-1413.78
-33046.4
-1424.11
-32759.8
-1434.29
-32471.1
-1444.31
-32180.5
-1454.18
-31888
-1463.9
-31593.5
-1473.47
-31297.1
-1482.89
-30998.9
-1492.16
-30698.9
-1501.29
-30397.1
-1510.27
-30093.5
-1519.11
-29788.1
-1527.8
-29481.1
-1536.35
-29172.4
-1544.76
-28862
-1553.03
-28550
-1561.16
-28236.3
-1569.15
-27921.2
-1577.01
-27604.4
-1584.73
-27286.2
-1592.32
-26966.5
-1599.77
-26645.3
-1607.09
-26322.6
-1614.29
-25998.6
-1621.35
-25673.1
-1628.29
-25346.3
-1635.1
-25018.2
-1641.78
-24688.7
-1648.34
-24358
-1654.78
-24026
-1661.09
-23692.7
-1667.28
-23358.2
-1673.36
-23022.6
-1679.31
-22685.8
-1685.15
-22347.8
-1690.87
-22008.7
-1696.47
-21668.5
-1701.96
-21327.3
-1707.34
-20984.9
-1712.61
-20641.6
-1717.76
-20297.2
-1722.8
-19951.9
-1727.74
-19605.6
-1732.56
-19258.3
-1737.28
-18910.1
-1741.9
-18561
-1746.41
-18211.1
-1750.81
-17860.2
-1755.11
-17508.6
-1759.31
-17156.1
-1763.41
-16802.8
-1767.41
-16448.7
-1771.3
-16093.9
-1775.1
-15738.3
-1778.81
-15382
-1782.41
-15025
-1785.92
-14667.4
-1789.34
-14309
-1792.66
-13950
-1795.88
-13590.4
-1799.02
-13230.2
-1802.06
-12869.3
-1805.01
-12508
-1807.87
-12146
-1810.64
-11783.5
-1813.33
-11420.5
-1815.92
-11057
-1818.43
-10693
-1820.85
-10328.6
-1823.18
-9963.64
-1825.43
-9598.3
-1827.59
-9232.54
-1829.67
-8866.38
-1831.67
-8499.84
-1833.58
-8132.93
-1835.42
-7765.67
-1837.17
-7398.07
-1838.84
-7030.16
-1840.43
-6661.94
-1841.94
-6293.44
-1843.37
-5924.67
-1844.72
-5555.64
-1846
-5186.37
-1847.2
-4816.87
-1848.32
-4447.17
-1849.37
-4077.27
-1850.34
-3707.19
-1851.23
-3336.95
-1852.05
-2966.56
-1852.79
-2596.04
-1853.45
-2225.4
-1854.03
-1854.66
-1854.54
-1483.83
-1854.96
-1112.94
-1855.31
-741.989
-1855.57
-371.004
-1855.76
-1855.86
-778.516
5002.9
-1542.12
4881.79
-2278.57
4652.11
-2979.43
4353.21
-3640.91
4030.13
-4263.67
3723.04
-4851.82
3460.19
-5411.48
3255.54
-5949.43
3110.39
-6472
3017.48
-6984.47
2965.3
-7490.83
2941.74
-7993.85
2936.25
-8495.28
2940.78
-8996.16
2949.83
-9496.98
2960
-9997.93
2969.39
-10499
2977.09
-11000.1
2982.77
-11501.1
2986.41
-12001.8
2988.11
-12502.1
2988.05
-13001.6
2986.4
-13500.4
2983.31
-13998.2
2978.93
-14494.8
2973.37
-14990.2
2966.73
-15484.1
2959.11
-15976.6
2950.58
-16467.3
2941.2
-16956.3
2931.02
-17443.4
2920.1
-17928.5
2908.48
-18411.4
2896.18
-18892.2
2883.25
-19370.7
2869.71
-19846.8
2855.59
-20320.4
2840.91
-20791.4
2825.69
-21259.8
2809.95
-21725.5
2793.7
-22188.3
2776.96
-22648.3
2759.75
-23105.3
2742.08
-23559.3
2723.95
-24010.2
2705.39
-24457.9
2686.4
-24902.3
2666.99
-25343.5
2647.18
-25781.2
2626.97
-26215.6
2606.36
-26646.4
2585.38
-27073.6
2564.03
-27497.3
2542.31
-27917.2
2520.23
-28333.4
2497.81
-28745.8
2475.04
-29154.4
2451.94
-29559
2428.52
-29959.7
2404.77
-30356.4
2380.72
-30749
2356.35
-31137.5
2331.69
-31521.9
2306.74
-31902
2281.5
-32277.9
2255.98
-32649.5
2230.2
-33016.7
2204.15
-33379.6
2177.84
-33738
2151.28
-34091.9
2124.47
-34441.4
2097.43
-34786.3
2070.15
-35126.6
2042.66
-35462.3
2014.94
-35793.4
1987.01
-36119.7
1958.88
-36441.4
1930.54
-36758.2
1902.02
-37070.3
1873.31
-37377.6
1844.42
-37680.1
1815.36
-37977.6
1786.13
-38270.3
1756.75
-38558.1
1727.21
-38840.9
1697.53
-39118.7
1667.7
-39391.6
1637.74
-39659.4
1607.65
-39922.2
1577.45
-40179.9
1547.13
-40432.6
1516.7