/*--------------------------------*- C++ -*----------------------------------*\
| =========                 |                                                 |
| \\      /  F ield         | OpenFOAM: The Open Source CFD Toolbox           |
|  \\    /   O peration     | Version:  2212                                  |
|   \\  /    A nd           | Website:  www.openfoam.com                      |
|    \\/     M anipulation  |                                                 |
\*---------------------------------------------------------------------------*/
FoamFile
{
    version     2.0;
    format      ascii;
    arch        "LSB;label=32;scalar=64";
    class       volScalarField;
    location    "540";
    object      p_rgh_0;
}
// * * * * * * * * * * * * * * * * * * * * * * * * * * * * * * * * * * * * * //

dimensions      [1 -1 -2 0 0 0 0];

internalField   nonuniform List<scalar> 
204800
(
39.8187
39.811
39.7941
39.7691
39.7355
39.6939
39.6441
39.5866
39.5217
39.4498
39.3713
39.2864
39.1956
39.099
38.997
38.8897
38.7774
38.6603
38.5385
38.4122
38.2817
38.147
38.0083
37.8659
37.7199
37.5705
37.4178
37.2619
37.1032
36.9416
36.7775
36.6109
36.442
36.2709
36.0979
35.9231
35.7466
35.5686
35.3892
35.2087
35.027
34.8445
34.6612
34.4773
34.2929
34.1081
33.9231
33.7381
33.553
33.3682
33.1836
32.9995
32.8159
32.633
32.4508
32.2695
32.0892
31.91
31.732
31.5553
31.38
31.2062
31.0339
30.8633
30.6944
30.5274
30.3623
30.1991
30.038
29.8791
29.7223
29.5677
29.4155
29.2656
29.1182
28.9732
28.8307
28.6908
28.5536
28.4189
28.287
28.1578
28.0313
27.9076
27.7868
27.6687
27.5536
27.4413
27.3319
27.2254
27.1218
27.0212
26.9235
26.8288
26.737
26.6482
26.5623
26.4794
26.3994
26.3224
26.2482
26.1771
26.1088
26.0434
25.981
25.9214
25.8646
25.8107
25.7596
25.7113
25.6658
25.623
25.5829
25.5455
25.5108
25.4788
25.4494
25.4225
25.3982
25.3764
25.3571
25.3403
25.3259
25.3139
25.3042
25.2969
25.2918
25.289
25.2884
25.29
25.2937
25.2995
25.3074
25.3173
25.3292
25.343
25.3587
25.3764
25.3958
25.417
25.44
25.4647
25.4911
25.5191
25.5488
25.58
25.6127
25.6468
25.6825
25.7195
25.758
25.7977
25.8388
25.8811
25.9246
25.9693
26.0152
26.0622
26.1103
26.1594
26.2095
26.2606
26.3127
26.3656
26.4195
26.4741
26.5296
26.5859
26.6429
26.7006
26.759
26.8181
26.8778
26.9381
26.9989
27.0603
27.1222
27.1846
27.2474
27.3106
27.3743
27.4383
27.5027
27.5674
27.6324
27.6976
27.7631
27.8289
27.8948
27.9609
28.0272
28.0936
28.1601
28.2268
28.2934
28.3602
28.427
28.4937
28.5605
28.6273
28.694
28.7606
28.8272
28.8936
28.96
29.0262
29.0923
29.1582
29.2239
29.2894
29.3547
29.4198
29.4847
29.5493
29.6136
29.6777
29.7414
29.8049
29.868
29.9308
29.9933
30.0554
30.1172
30.1785
30.2395
30.3001
30.3603
30.42
30.4794
30.5383
30.5967
30.6547
30.7123
30.7693
30.8259
30.882
30.9376
30.9927
31.0473
31.1014
31.1549
31.2079
31.2604
31.3123
31.3637
31.4145
31.4648
31.5145
31.5636
31.6121
31.66
31.7074
31.7541
31.8003
31.8459
31.8908
31.9351
31.9788
32.0219
32.0644
32.1062
32.1474
32.188
32.2279
32.2671
32.3058
32.3437
32.381
32.4177
32.4537
32.489
32.5237
32.5577
32.591
32.6236
32.6556
32.6869
32.7175
32.7474
32.7767
32.8052
32.8331
32.8602
32.8867
32.9125
32.9375
32.9619
32.9856
33.0086
33.0308
33.0524
33.0732
33.0934
33.1128
33.1316
33.1496
33.1669
33.1835
33.1993
33.2145
33.2289
33.2427
33.2557
33.268
33.2795
33.2904
33.3005
33.3099
33.3186
33.3266
33.3338
33.3403
33.3461
33.3512
33.3555
33.3592
33.3621
33.3642
33.3657
33.3664
39.775
39.7649
39.7448
39.7156
39.6776
39.6316
39.5781
39.5175
39.4502
39.3765
39.2966
39.2109
39.1195
39.0225
38.9203
38.813
38.7006
38.5836
38.4618
38.3357
38.2053
38.0708
37.9323
37.7901
37.6443
37.4951
37.3426
37.187
37.0285
36.8672
36.7033
36.5369
36.3683
36.1976
36.0248
35.8503
35.6741
35.4964
35.3173
35.1371
34.9558
34.7736
34.5906
34.407
34.2229
34.0384
33.8538
33.669
33.4843
33.2998
33.1156
32.9318
32.7485
32.5659
32.3841
32.2031
32.0232
31.8443
31.6666
31.4902
31.3152
31.1417
30.9698
30.7995
30.6309
30.4642
30.2994
30.1366
29.9758
29.8171
29.6606
29.5063
29.3544
29.2048
29.0576
28.9129
28.7708
28.6311
28.4941
28.3598
28.2281
28.0991
27.9729
27.8495
27.7288
27.611
27.4961
27.384
27.2749
27.1686
27.0652
26.9648
26.8673
26.7728
26.6812
26.5925
26.5068
26.4241
26.3443
26.2674
26.1935
26.1225
26.0543
25.9891
25.9268
25.8673
25.8107
25.7569
25.7059
25.6577
25.6123
25.5696
25.5296
25.4924
25.4578
25.4258
25.3964
25.3697
25.3454
25.3237
25.3045
25.2877
25.2734
25.2614
25.2518
25.2445
25.2394
25.2367
25.2361
25.2377
25.2414
25.2472
25.2551
25.265
25.2769
25.2908
25.3065
25.3241
25.3435
25.3647
25.3877
25.4124
25.4388
25.4668
25.4963
25.5275
25.5602
25.5943
25.6299
25.6669
25.7053
25.745
25.786
25.8282
25.8717
25.9164
25.9622
26.0091
26.0571
26.1061
26.1562
26.2072
26.2592
26.3121
26.3658
26.4204
26.4758
26.532
26.5889
26.6465
26.7048
26.7638
26.8234
26.8836
26.9443
27.0056
27.0674
27.1297
27.1924
27.2555
27.3191
27.383
27.4473
27.5119
27.5767
27.6419
27.7073
27.7729
27.8387
27.9047
27.9709
28.0372
28.1036
28.1701
28.2367
28.3033
28.37
28.4367
28.5033
28.57
28.6365
28.7031
28.7695
28.8359
28.9021
28.9682
29.0341
29.0999
29.1655
29.231
29.2962
29.3611
29.4259
29.4904
29.5546
29.6185
29.6822
29.7455
29.8085
29.8712
29.9336
29.9956
30.0572
30.1185
30.1794
30.2398
30.2999
30.3596
30.4188
30.4776
30.5359
30.5938
30.6513
30.7082
30.7647
30.8207
30.8762
30.9312
30.9857
31.0397
31.0931
31.146
31.1984
31.2502
31.3015
31.3522
31.4024
31.452
31.501
31.5495
31.5973
31.6446
31.6913
31.7373
31.7828
31.8277
31.8719
31.9155
31.9585
32.0009
32.0427
32.0838
32.1243
32.1641
32.2033
32.2419
32.2798
32.317
32.3536
32.3895
32.4248
32.4594
32.4933
32.5266
32.5592
32.5911
32.6223
32.6528
32.6827
32.7119
32.7404
32.7682
32.7953
32.8217
32.8474
32.8725
32.8968
32.9204
32.9434
32.9656
32.9871
33.0079
33.028
33.0474
33.0661
33.0841
33.1014
33.1179
33.1338
33.1489
33.1633
33.177
33.19
33.2023
33.2138
33.2247
33.2348
33.2442
33.2528
33.2608
33.268
33.2745
33.2803
33.2854
33.2897
33.2933
33.2962
33.2984
33.2998
33.3005
39.7598
39.75
39.73
39.701
39.6631
39.6173
39.5638
39.5033
39.4359
39.3621
39.2822
39.1963
39.1047
39.0076
38.9052
38.7977
38.6853
38.568
38.4462
38.3199
38.1894
38.0547
37.9162
37.7739
37.628
37.4787
37.3261
37.1704
37.0118
36.8505
36.6865
36.5201
36.3514
36.1806
36.0079
35.8333
35.657
35.4793
35.3002
35.1199
34.9386
34.7563
34.5733
34.3897
34.2056
34.0211
33.8365
33.6517
33.467
33.2825
33.0983
32.9145
32.7312
32.5486
32.3668
32.1858
32.0059
31.827
31.6494
31.473
31.298
31.1245
30.9526
30.7823
30.6138
30.4471
30.2823
30.1195
29.9587
29.8001
29.6436
29.4894
29.3375
29.1879
29.0408
28.8962
28.754
28.6144
28.4775
28.3431
28.2115
28.0826
27.9564
27.833
27.7124
27.5947
27.4798
27.3678
27.2587
27.1524
27.0491
26.9488
26.8513
26.7569
26.6653
26.5767
26.4911
26.4084
26.3286
26.2518
26.1779
26.107
26.0389
25.9737
25.9114
25.852
25.7955
25.7417
25.6908
25.6427
25.5973
25.5547
25.5148
25.4775
25.443
25.4111
25.3818
25.355
25.3309
25.3092
25.29
25.2733
25.259
25.2471
25.2375
25.2303
25.2253
25.2226
25.222
25.2237
25.2275
25.2333
25.2413
25.2512
25.2631
25.277
25.2928
25.3104
25.3299
25.3512
25.3742
25.3989
25.4253
25.4533
25.483
25.5142
25.5469
25.581
25.6167
25.6537
25.6921
25.7318
25.7729
25.8152
25.8587
25.9034
25.9492
25.9962
26.0442
26.0933
26.1433
26.1944
26.2464
26.2993
26.3531
26.4077
26.4631
26.5193
26.5762
26.6339
26.6922
26.7512
26.8108
26.871
26.9318
26.9931
27.0549
27.1172
27.1799
27.2431
27.3066
27.3706
27.4348
27.4994
27.5643
27.6295
27.6949
27.7605
27.8264
27.8924
27.9586
28.0249
28.0913
28.1578
28.2244
28.291
28.3577
28.4244
28.491
28.5577
28.6243
28.6908
28.7572
28.8236
28.8898
28.9559
29.0219
29.0877
29.1533
29.2187
29.2839
29.3489
29.4136
29.4781
29.5423
29.6062
29.6699
29.7332
29.7962
29.8589
29.9213
29.9833
30.0449
30.1062
30.167
30.2275
30.2876
30.3472
30.4065
30.4653
30.5236
30.5815
30.6389
30.6959
30.7524
30.8083
30.8638
30.9188
30.9733
31.0273
31.0807
31.1336
31.186
31.2378
31.2891
31.3398
31.39
31.4396
31.4886
31.537
31.5849
31.6321
31.6788
31.7249
31.7703
31.8152
31.8594
31.903
31.946
31.9884
32.0302
32.0713
32.1117
32.1516
32.1908
32.2293
32.2672
32.3044
32.341
32.3769
32.4122
32.4468
32.4807
32.514
32.5465
32.5784
32.6097
32.6402
32.6701
32.6993
32.7277
32.7555
32.7827
32.8091
32.8348
32.8598
32.8841
32.9078
32.9307
32.9529
32.9744
32.9952
33.0153
33.0347
33.0534
33.0714
33.0887
33.1052
33.1211
33.1362
33.1506
33.1643
33.1773
33.1896
33.2011
33.2119
33.222
33.2314
33.2401
33.248
33.2553
33.2618
33.2675
33.2726
33.2769
33.2806
33.2835
33.2856
33.2871
33.2878
39.7114
39.7009
39.6797
39.6491
39.6093
39.5616
39.5062
39.4439
39.375
39.2999
39.2189
39.1322
39.0399
38.9423
38.8394
38.7316
38.6189
38.5014
38.3794
38.253
38.1224
37.9877
37.8492
37.7069
37.561
37.4117
37.2592
37.1036
36.945
36.7838
36.6199
36.4536
36.285
36.1143
35.9417
35.7672
35.5912
35.4136
35.2346
35.0545
34.8733
34.6913
34.5084
34.325
34.1411
33.9568
33.7723
33.5878
33.4033
33.2189
33.0349
32.8513
32.6683
32.4859
32.3043
32.1236
31.9438
31.7652
31.5877
31.4116
31.2368
31.0636
30.8919
30.7218
30.5535
30.3871
30.2225
30.0599
29.8994
29.741
29.5847
29.4307
29.2791
29.1297
28.9828
28.8384
28.6965
28.5571
28.4203
28.2862
28.1548
28.0261
27.9002
27.777
27.6566
27.5391
27.4244
27.3126
27.2036
27.0976
26.9945
26.8943
26.7971
26.7028
26.6114
26.523
26.4375
26.355
26.2754
26.1988
26.1251
26.0543
25.9864
25.9214
25.8592
25.8
25.7435
25.69
25.6392
25.5912
25.5459
25.5034
25.4637
25.4266
25.3921
25.3603
25.3311
25.3045
25.2805
25.2589
25.2398
25.2232
25.209
25.1972
25.1877
25.1805
25.1756
25.173
25.1725
25.1742
25.1781
25.184
25.192
25.202
25.214
25.2279
25.2438
25.2615
25.281
25.3023
25.3253
25.3501
25.3765
25.4046
25.4342
25.4655
25.4982
25.5324
25.568
25.6051
25.6435
25.6832
25.7243
25.7666
25.8101
25.8548
25.9006
25.9475
25.9956
26.0446
26.0947
26.1457
26.1977
26.2506
26.3043
26.3589
26.4143
26.4705
26.5274
26.585
26.6434
26.7023
26.7619
26.8221
26.8828
26.944
27.0058
27.068
27.1307
27.1939
27.2574
27.3212
27.3855
27.45
27.5149
27.58
27.6453
27.7109
27.7767
27.8427
27.9088
27.975
28.0414
28.1078
28.1744
28.2409
28.3075
28.3741
28.4407
28.5073
28.5738
28.6403
28.7067
28.773
28.8391
28.9052
28.9711
29.0368
29.1023
29.1677
29.2328
29.2977
29.3624
29.4268
29.491
29.5548
29.6184
29.6817
29.7446
29.8072
29.8695
29.9315
29.993
30.0542
30.115
30.1754
30.2354
30.295
30.3541
30.4129
30.4711
30.529
30.5863
30.6432
30.6996
30.7556
30.811
30.8659
30.9203
30.9742
31.0276
31.0805
31.1328
31.1845
31.2357
31.2864
31.3365
31.386
31.435
31.4833
31.5311
31.5783
31.6249
31.6709
31.7164
31.7612
31.8053
31.8489
31.8918
31.9342
31.9759
32.0169
32.0573
32.0971
32.1363
32.1748
32.2126
32.2498
32.2863
32.3222
32.3574
32.392
32.4258
32.4591
32.4916
32.5235
32.5546
32.5851
32.615
32.6441
32.6725
32.7003
32.7274
32.7538
32.7795
32.8044
32.8287
32.8523
32.8752
32.8974
32.9189
32.9397
32.9598
32.9791
32.9978
33.0158
33.033
33.0495
33.0654
33.0805
33.0949
33.1085
33.1215
33.1337
33.1453
33.1561
33.1662
33.1756
33.1842
33.1921
33.1994
33.2059
33.2116
33.2167
33.221
33.2246
33.2275
33.2297
33.2311
33.2319
39.6858
39.6755
39.6546
39.6244
39.585
39.5375
39.4824
39.4202
39.3513
39.2762
39.195
39.108
39.0155
38.9176
38.8144
38.7063
38.5933
38.4756
38.3533
38.2267
38.0958
37.9609
37.8221
37.6796
37.5335
37.384
37.2313
37.0755
36.9169
36.7554
36.5914
36.425
36.2563
36.0855
35.9127
35.7382
35.562
35.3843
35.2053
35.025
34.8438
34.6617
34.4788
34.2952
34.1113
33.9269
33.7424
33.5578
33.3733
33.1889
33.0049
32.8213
32.6382
32.4558
32.2742
32.0934
31.9137
31.7351
31.5576
31.3815
31.2067
31.0335
30.8618
30.6918
30.5235
30.3571
30.1926
30.03
29.8695
29.7111
29.5549
29.401
29.2494
29.1001
28.9532
28.8089
28.667
28.5277
28.391
28.257
28.1256
27.997
27.8711
27.748
27.6277
27.5103
27.3956
27.2839
27.1751
27.0691
26.9661
26.866
26.7689
26.6747
26.5834
26.4951
26.4097
26.3273
26.2478
26.1713
26.0976
26.0269
25.9591
25.8942
25.8322
25.773
25.7167
25.6632
25.6125
25.5647
25.5195
25.4771
25.4374
25.4005
25.3661
25.3344
25.3054
25.2788
25.2549
25.2334
25.2145
25.1979
25.1838
25.1721
25.1627
25.1556
25.1508
25.1483
25.1479
25.1498
25.1537
25.1597
25.1678
25.1779
25.19
25.204
25.2199
25.2377
25.2573
25.2787
25.3019
25.3267
25.3532
25.3814
25.4111
25.4424
25.4752
25.5095
25.5452
25.5823
25.6208
25.6606
25.7017
25.7441
25.7877
25.8324
25.8783
25.9253
25.9734
26.0225
26.0727
26.1238
26.1758
26.2288
26.2826
26.3372
26.3927
26.4489
26.5059
26.5635
26.6219
26.6809
26.7405
26.8007
26.8615
26.9228
26.9846
27.0469
27.1096
27.1728
27.2363
27.3002
27.3645
27.4291
27.494
27.5591
27.6245
27.6901
27.7559
27.8219
27.888
27.9543
28.0207
28.0872
28.1537
28.2203
28.2869
28.3536
28.4202
28.4868
28.5533
28.6198
28.6862
28.7525
28.8187
28.8847
28.9506
29.0164
29.0819
29.1473
29.2124
29.2773
29.342
29.4064
29.4706
29.5345
29.5981
29.6613
29.7243
29.7869
29.8492
29.9111
29.9727
30.0339
30.0947
30.1551
30.2151
30.2747
30.3339
30.3926
30.4509
30.5087
30.566
30.6229
30.6793
30.7353
30.7907
30.8456
30.9
30.9539
31.0073
31.0601
31.1124
31.1642
31.2154
31.2661
31.3161
31.3657
31.4146
31.463
31.5108
31.558
31.6046
31.6506
31.696
31.7408
31.7849
31.8285
31.8714
31.9138
31.9554
31.9965
32.0369
32.0767
32.1158
32.1543
32.1921
32.2293
32.2659
32.3017
32.3369
32.3715
32.4053
32.4386
32.4711
32.5029
32.5341
32.5646
32.5944
32.6236
32.652
32.6798
32.7068
32.7332
32.7589
32.7839
32.8082
32.8317
32.8546
32.8768
32.8983
32.9191
32.9392
32.9585
32.9772
32.9951
33.0124
33.0289
33.0447
33.0598
33.0742
33.0879
33.1009
33.1131
33.1246
33.1354
33.1455
33.1549
33.1636
33.1715
33.1787
33.1852
33.191
33.196
33.2004
33.204
33.2068
33.209
33.2105
33.2112
39.636
39.6255
39.6043
39.5735
39.5335
39.4852
39.4292
39.3662
39.2964
39.2204
39.1384
39.0507
38.9574
38.8589
38.7553
38.6467
38.5332
38.4151
38.2925
38.1656
38.0345
37.8994
37.7604
37.6177
37.4715
37.3219
37.169
37.0132
36.8544
36.6929
36.5288
36.3624
36.1936
36.0228
35.85
35.6755
35.4993
35.3216
35.1426
34.9624
34.7812
34.5991
34.4163
34.2328
34.0489
33.8647
33.6802
33.4957
33.3112
33.127
32.9431
32.7595
32.5766
32.3943
32.2128
32.0322
31.8526
31.6741
31.4968
31.3208
31.1462
30.9731
30.8016
30.6317
30.4636
30.2973
30.133
29.9706
29.8102
29.652
29.496
29.3422
29.1908
29.0417
28.895
28.7508
28.6091
28.47
28.3335
28.1997
28.0685
27.94
27.8143
27.6914
27.5713
27.4541
27.3396
27.2281
27.1194
27.0137
26.9109
26.811
26.714
26.62
26.5289
26.4408
26.3556
26.2733
26.194
26.1177
26.0442
25.9737
25.9061
25.8413
25.7795
25.7205
25.6643
25.611
25.5605
25.5128
25.4678
25.4256
25.3861
25.3492
25.3151
25.2835
25.2546
25.2282
25.2044
25.1831
25.1643
25.1479
25.1339
25.1223
25.1131
25.1061
25.1015
25.0991
25.0988
25.1008
25.1048
25.111
25.1192
25.1294
25.1416
25.1557
25.1717
25.1896
25.2093
25.2308
25.254
25.279
25.3056
25.3338
25.3636
25.395
25.4279
25.4622
25.498
25.5352
25.5738
25.6137
25.6548
25.6973
25.7409
25.7857
25.8317
25.8787
25.9269
25.976
26.0262
26.0774
26.1294
26.1824
26.2363
26.2909
26.3464
26.4027
26.4597
26.5174
26.5757
26.6348
26.6944
26.7546
26.8154
26.8768
26.9386
27.0009
27.0636
27.1268
27.1903
27.2542
27.3185
27.3831
27.448
27.5131
27.5785
27.6441
27.7099
27.7759
27.842
27.9083
27.9747
28.0411
28.1076
28.1742
28.2408
28.3074
28.3741
28.4406
28.5072
28.5736
28.64
28.7063
28.7724
28.8385
28.9043
28.97
29.0356
29.1009
29.166
29.2309
29.2955
29.3599
29.4241
29.4879
29.5514
29.6147
29.6776
29.7402
29.8025
29.8644
29.9259
29.987
30.0478
30.1082
30.1681
30.2277
30.2868
30.3455
30.4037
30.4615
30.5188
30.5757
30.6321
30.6879
30.7433
30.7982
30.8526
30.9065
30.9598
31.0126
31.0649
31.1166
31.1678
31.2184
31.2684
31.3179
31.3668
31.4151
31.4629
31.5101
31.5566
31.6026
31.648
31.6927
31.7369
31.7804
31.8233
31.8656
31.9072
31.9482
31.9886
32.0284
32.0675
32.1059
32.1437
32.1809
32.2174
32.2532
32.2884
32.3229
32.3567
32.3899
32.4224
32.4542
32.4854
32.5159
32.5456
32.5748
32.6032
32.6309
32.6579
32.6843
32.71
32.7349
32.7592
32.7828
32.8056
32.8278
32.8493
32.87
32.8901
32.9094
32.9281
32.946
32.9632
32.9797
32.9955
33.0106
33.025
33.0387
33.0516
33.0638
33.0754
33.0862
33.0962
33.1056
33.1142
33.1222
33.1294
33.1359
33.1416
33.1467
33.151
33.1546
33.1575
33.1597
33.1611
33.1618
39.6032
39.5929
39.572
39.5417
39.5021
39.4542
39.3984
39.3355
39.2657
39.1896
39.1074
39.0195
38.9259
38.827
38.723
38.614
38.5002
38.3817
38.2587
38.1314
37.9999
37.8645
37.7251
37.5821
37.4356
37.2857
37.1326
36.9765
36.8175
36.6557
36.4914
36.3247
36.1558
35.9847
35.8118
35.637
35.4606
35.2828
35.1036
34.9233
34.742
34.5597
34.3768
34.1932
34.0092
33.8248
33.6403
33.4557
33.2712
33.0868
32.9028
32.7192
32.5362
32.3539
32.1724
31.9917
31.8121
31.6335
31.4562
31.2802
31.1056
30.9325
30.761
30.5912
30.4231
30.2568
30.0925
29.9301
29.7698
29.6116
29.4557
29.3019
29.1505
29.0015
28.8549
28.7108
28.5692
28.4301
28.2937
28.1599
28.0289
27.9005
27.7749
27.6521
27.5321
27.4149
27.3006
27.1892
27.0806
26.975
26.8723
26.7725
26.6757
26.5818
26.4908
26.4028
26.3177
26.2356
26.1565
26.0802
26.0069
25.9365
25.8691
25.8045
25.7428
25.6839
25.6279
25.5748
25.5244
25.4768
25.432
25.3899
25.3505
25.3139
25.2798
25.2484
25.2197
25.1935
25.1698
25.1486
25.13
25.1137
25.0999
25.0885
25.0794
25.0726
25.068
25.0658
25.0657
25.0678
25.072
25.0783
25.0866
25.097
25.1093
25.1236
25.1397
25.1577
25.1776
25.1992
25.2226
25.2476
25.2744
25.3027
25.3327
25.3642
25.3972
25.4317
25.4676
25.5049
25.5436
25.5836
25.6248
25.6674
25.7111
25.756
25.8021
25.8493
25.8975
25.9468
25.9971
26.0483
26.1005
26.1536
26.2075
26.2623
26.3179
26.3742
26.4313
26.4891
26.5475
26.6066
26.6664
26.7267
26.7875
26.8489
26.9108
26.9732
27.036
27.0992
27.1628
27.2268
27.2912
27.3558
27.4207
27.4859
27.5514
27.617
27.6829
27.7489
27.8151
27.8814
27.9478
28.0144
28.0809
28.1476
28.2142
28.2809
28.3475
28.4141
28.4807
28.5472
28.6136
28.6799
28.7461
28.8122
28.8781
28.9438
29.0093
29.0747
29.1398
29.2048
29.2694
29.3338
29.398
29.4619
29.5254
29.5887
29.6516
29.7142
29.7765
29.8384
29.9
29.9611
30.0219
30.0823
30.1423
30.2018
30.261
30.3197
30.3779
30.4357
30.493
30.5499
30.6063
30.6622
30.7176
30.7725
30.8268
30.8807
30.934
30.9868
31.0391
31.0908
31.142
31.1926
31.2427
31.2922
31.3411
31.3894
31.4372
31.4843
31.5309
31.5769
31.6222
31.667
31.7111
31.7546
31.7975
31.8398
31.8815
31.9225
31.9629
32.0026
32.0417
32.0802
32.118
32.1551
32.1916
32.2274
32.2626
32.2971
32.331
32.3641
32.3966
32.4284
32.4596
32.4901
32.5198
32.5489
32.5774
32.6051
32.6321
32.6585
32.6841
32.7091
32.7333
32.7569
32.7798
32.8019
32.8234
32.8442
32.8642
32.8836
32.9022
32.9201
32.9373
32.9539
32.9697
32.9847
32.9991
33.0128
33.0257
33.038
33.0495
33.0603
33.0703
33.0797
33.0883
33.0963
33.1035
33.11
33.1157
33.1208
33.1251
33.1287
33.1316
33.1338
33.1352
33.1359
39.5533
39.5429
39.5221
39.4916
39.4519
39.4037
39.3476
39.2842
39.2139
39.1372
39.0544
38.9658
38.8717
38.7722
38.6676
38.558
38.4437
38.3247
38.2013
38.0735
37.9417
37.8059
37.6662
37.5229
37.376
37.2259
37.0725
36.9161
36.7569
36.595
36.4305
36.2636
36.0945
35.9233
35.7502
35.5753
35.3988
35.2209
35.0416
34.8612
34.6798
34.4975
34.3144
34.1308
33.9468
33.7624
33.5778
33.3932
33.2087
33.0244
32.8404
32.6568
32.4738
32.2915
32.11
31.9294
31.7498
31.5714
31.3941
31.2182
31.0437
30.8706
30.6992
30.5295
30.3615
30.1953
30.0311
29.8688
29.7087
29.5506
29.3948
29.2412
29.0899
28.941
28.7946
28.6506
28.5091
28.3702
28.234
28.1004
27.9695
27.8413
27.7158
27.5932
27.4734
27.3564
27.2422
27.131
27.0226
26.9172
26.8147
26.7151
26.6184
26.5247
26.434
26.3461
26.2613
26.1794
26.1004
26.0244
25.9513
25.8811
25.8138
25.7494
25.6879
25.6292
25.5734
25.5205
25.4703
25.4229
25.3783
25.3364
25.2972
25.2608
25.2269
25.1957
25.1671
25.1411
25.1176
25.0967
25.0782
25.0621
25.0485
25.0372
25.0283
25.0217
25.0174
25.0153
25.0154
25.0176
25.022
25.0285
25.037
25.0475
25.06
25.0744
25.0907
25.1089
25.1289
25.1507
25.1742
25.1994
25.2262
25.2547
25.2848
25.3165
25.3496
25.3842
25.4203
25.4577
25.4965
25.5366
25.578
25.6207
25.6645
25.7096
25.7557
25.803
25.8514
25.9007
25.9511
26.0025
26.0547
26.1079
26.1619
26.2168
26.2724
26.3289
26.386
26.4439
26.5024
26.5616
26.6214
26.6818
26.7427
26.8042
26.8661
26.9285
26.9914
27.0547
27.1184
27.1824
27.2468
27.3115
27.3764
27.4417
27.5072
27.5729
27.6388
27.7048
27.7711
27.8374
27.9039
27.9704
28.037
28.1036
28.1703
28.237
28.3037
28.3703
28.4369
28.5034
28.5698
28.6362
28.7024
28.7684
28.8343
28.9001
28.9656
29.031
29.0962
29.1611
29.2257
29.2902
29.3543
29.4182
29.4817
29.545
29.608
29.6706
29.7328
29.7947
29.8563
29.9174
29.9782
30.0386
30.0986
30.1581
30.2172
30.2759
30.3341
30.3919
30.4492
30.5061
30.5625
30.6183
30.6737
30.7286
30.783
30.8368
30.8901
30.9429
30.9952
31.0469
31.098
31.1486
31.1987
31.2481
31.297
31.3453
31.3931
31.4402
31.4868
31.5327
31.5781
31.6228
31.6669
31.7104
31.7533
31.7956
31.8372
31.8782
31.9186
31.9583
31.9974
32.0358
32.0736
32.1107
32.1472
32.183
32.2182
32.2526
32.2865
32.3196
32.3521
32.3839
32.415
32.4455
32.4753
32.5043
32.5327
32.5605
32.5875
32.6138
32.6394
32.6644
32.6886
32.7122
32.735
32.7572
32.7786
32.7994
32.8194
32.8388
32.8574
32.8753
32.8925
32.909
32.9248
32.9399
32.9543
32.9679
32.9808
32.9931
33.0046
33.0154
33.0254
33.0348
33.0434
33.0514
33.0586
33.065
33.0708
33.0758
33.0802
33.0838
33.0867
33.0888
33.0903
33.091
39.5155
39.5053
39.4847
39.4547
39.4153
39.3674
39.3116
39.2483
39.178
39.1012
39.0181
38.9292
38.8347
38.7348
38.6297
38.5196
38.4048
38.2854
38.1615
38.0333
37.901
37.7647
37.6246
37.4808
37.3336
37.183
37.0293
36.8726
36.713
36.5507
36.3859
36.2187
36.0492
35.8778
35.7044
35.5292
35.3525
35.1743
34.9948
34.8142
34.6326
34.4501
34.2668
34.083
33.8988
33.7143
33.5296
33.3448
33.1601
32.9757
32.7916
32.6079
32.4248
32.2425
32.0609
31.8802
31.7006
31.522
31.3447
31.1688
30.9942
30.8212
30.6497
30.48
30.312
30.1458
29.9816
29.8194
29.6592
29.5012
29.3454
29.1919
29.0406
28.8918
28.7454
28.6015
28.4601
28.3213
28.1851
28.0516
27.9208
27.7927
27.6674
27.5449
27.4252
27.3083
27.1943
27.0832
26.975
26.8696
26.7673
26.6678
26.5713
26.4778
26.3872
26.2995
26.2148
26.1331
26.0543
25.9784
25.9055
25.8355
25.7684
25.7042
25.6428
25.5844
25.5288
25.476
25.426
25.3788
25.3344
25.2927
25.2537
25.2174
25.1838
25.1528
25.1244
25.0986
25.0753
25.0545
25.0362
25.0204
25.007
24.9959
24.9872
24.9808
24.9766
24.9747
24.975
24.9774
24.982
24.9887
24.9974
25.0081
25.0208
25.0354
25.0519
25.0702
25.0904
25.1124
25.1361
25.1615
25.1885
25.2172
25.2474
25.2792
25.3126
25.3473
25.3836
25.4212
25.4601
25.5004
25.542
25.5848
25.6288
25.674
25.7203
25.7677
25.8162
25.8657
25.9163
25.9677
26.0201
26.0734
26.1276
26.1826
26.2384
26.2949
26.3522
26.4102
26.4689
26.5282
26.5881
26.6486
26.7096
26.7712
26.8332
26.8958
26.9587
27.0221
27.0859
27.15
27.2145
27.2793
27.3444
27.4097
27.4753
27.541
27.607
27.6732
27.7395
27.8059
27.8724
27.939
28.0057
28.0724
28.1392
28.2059
28.2727
28.3394
28.406
28.4726
28.5391
28.6054
28.6717
28.7378
28.8038
28.8696
28.9352
29.0006
29.0658
29.1308
29.1955
29.2599
29.3241
29.388
29.4516
29.5149
29.5779
29.6406
29.7028
29.7648
29.8264
29.8876
29.9484
30.0088
30.0688
30.1283
30.1875
30.2462
30.3044
30.3622
30.4196
30.4765
30.5328
30.5887
30.6441
30.699
30.7534
30.8073
30.8606
30.9134
30.9657
31.0174
31.0686
31.1192
31.1692
31.2187
31.2676
31.3159
31.3637
31.4108
31.4574
31.5033
31.5487
31.5934
31.6375
31.6811
31.7239
31.7662
31.8078
31.8488
31.8892
31.9289
31.968
32.0065
32.0442
32.0814
32.1178
32.1537
32.1888
32.2233
32.2571
32.2903
32.3228
32.3546
32.3857
32.4162
32.4459
32.475
32.5034
32.5311
32.5581
32.5845
32.6101
32.6351
32.6593
32.6829
32.7057
32.7279
32.7493
32.77
32.7901
32.8094
32.828
32.846
32.8632
32.8797
32.8955
32.9105
32.9249
32.9386
32.9515
32.9637
32.9752
32.986
32.9961
33.0054
33.0141
33.022
33.0292
33.0357
33.0414
33.0465
33.0508
33.0544
33.0573
33.0595
33.0609
33.0616
39.4657
39.4555
39.435
39.405
39.3657
39.3178
39.2617
39.1982
39.1275
39.0503
38.9667
38.8773
38.7821
38.6816
38.576
38.4653
38.3499
38.2299
38.1054
37.9767
37.8439
37.7071
37.5666
37.4224
37.2747
37.1238
36.9697
36.8126
36.6526
36.49
36.3249
36.1574
35.9877
35.8159
35.6423
35.4669
35.2899
35.1115
34.9318
34.751
34.5692
34.3865
34.2031
34.0192
33.8348
33.6502
33.4653
33.2805
33.0957
32.9112
32.727
32.5433
32.3602
32.1777
31.9961
31.8154
31.6358
31.4572
31.2799
31.104
30.9294
30.7564
30.585
30.4153
30.2473
30.0813
29.9171
29.755
29.5949
29.437
29.2812
29.1278
28.9767
28.828
28.6817
28.5379
28.3966
28.258
28.1219
27.9886
27.8579
27.73
27.6048
27.4825
27.3629
27.2462
27.1324
27.0215
26.9134
26.8083
26.7061
26.6069
26.5106
26.4172
26.3268
26.2394
26.1549
26.0734
25.9948
25.9191
25.8464
25.7766
25.7098
25.6458
25.5847
25.5265
25.4711
25.4185
25.3688
25.3218
25.2776
25.2362
25.1974
25.1614
25.128
25.0972
25.069
25.0435
25.0204
24.9999
24.9818
24.9662
24.953
24.9421
24.9337
24.9275
24.9236
24.9219
24.9224
24.925
24.9298
24.9367
24.9456
24.9565
24.9694
24.9843
25.001
25.0195
25.0399
25.0621
25.086
25.1116
25.1388
25.1677
25.1981
25.2301
25.2636
25.2986
25.335
25.3728
25.4119
25.4524
25.4941
25.5371
25.5813
25.6266
25.6731
25.7207
25.7693
25.819
25.8697
25.9213
25.9738
26.0273
26.0816
26.1367
26.1926
26.2493
26.3067
26.3648
26.4236
26.483
26.5431
26.6037
26.6648
26.7265
26.7887
26.8513
26.9144
26.9779
27.0417
27.106
27.1705
27.2354
27.3006
27.366
27.4316
27.4975
27.5636
27.6298
27.6962
27.7627
27.8293
27.896
27.9627
28.0295
28.0963
28.1631
28.2299
28.2966
28.3633
28.43
28.4965
28.5629
28.6292
28.6954
28.7614
28.8272
28.8929
28.9583
29.0236
29.0886
29.1533
29.2178
29.282
29.346
29.4096
29.4729
29.5359
29.5986
29.6609
29.7229
29.7845
29.8457
29.9065
29.9669
30.0269
30.0865
30.1457
30.2044
30.2627
30.3205
30.3778
30.4347
30.4911
30.547
30.6024
30.6573
30.7117
30.7656
30.8189
30.8717
30.924
30.9757
31.0269
31.0775
31.1275
31.177
31.2259
31.2743
31.322
31.3691
31.4157
31.4616
31.507
31.5517
31.5959
31.6394
31.6822
31.7245
31.7661
31.8071
31.8475
31.8872
31.9263
31.9647
32.0025
32.0396
32.0761
32.1119
32.1471
32.1815
32.2154
32.2485
32.281
32.3128
32.3439
32.3743
32.4041
32.4332
32.4616
32.4893
32.5163
32.5426
32.5683
32.5932
32.6174
32.641
32.6638
32.686
32.7074
32.7281
32.7482
32.7675
32.7861
32.804
32.8212
32.8377
32.8535
32.8686
32.8829
32.8966
32.9095
32.9217
32.9332
32.944
32.9541
32.9635
32.9721
32.98
32.9872
32.9937
32.9994
33.0045
33.0088
33.0124
33.0153
33.0175
33.0189
33.0196
39.4243
39.4142
39.394
39.3642
39.3252
39.2775
39.2216
39.1581
39.0874
39.0099
38.9261
38.8363
38.7407
38.6397
38.5335
38.4224
38.3064
38.1858
38.0608
37.9315
37.7981
37.6608
37.5197
37.375
37.2268
37.0754
36.9208
36.7632
36.6028
36.4398
36.2742
36.1063
35.9362
35.7641
35.5901
35.4144
35.2371
35.0583
34.8783
34.6972
34.5151
34.3322
34.1485
33.9644
33.7798
33.5949
33.4098
33.2248
33.0398
32.8551
32.6708
32.4869
32.3036
32.1211
31.9393
31.7585
31.5788
31.4001
31.2228
31.0467
30.8721
30.6991
30.5276
30.3578
30.1899
30.0238
29.8596
29.6975
29.5374
29.3795
29.2238
29.0704
28.9194
28.7707
28.6245
28.4807
28.3396
28.201
28.065
27.9318
27.8012
27.6734
27.5484
27.4261
27.3067
27.1902
27.0765
26.9657
26.8578
26.7529
26.6508
26.5518
26.4556
26.3625
26.2723
26.185
26.1007
26.0194
25.941
25.8656
25.7931
25.7235
25.6568
25.5931
25.5322
25.4742
25.419
25.3667
25.3172
25.2705
25.2265
25.1853
25.1468
25.111
25.0778
25.0473
25.0194
24.994
24.9712
24.9509
24.9331
24.9178
24.9048
24.8942
24.886
24.88
24.8764
24.8749
24.8757
24.8786
24.8836
24.8907
24.8999
24.9111
24.9242
24.9393
24.9562
24.975
24.9956
25.018
25.0421
25.068
25.0954
25.1245
25.1552
25.1874
25.2211
25.2563
25.2929
25.3309
25.3703
25.4109
25.4529
25.4961
25.5404
25.586
25.6327
25.6805
25.7293
25.7792
25.83
25.8818
25.9346
25.9882
26.0427
26.098
26.1541
26.2109
26.2685
26.3268
26.3857
26.4453
26.5055
26.5662
26.6275
26.6893
26.7517
26.8144
26.8776
26.9413
27.0053
27.0696
27.1343
27.1993
27.2646
27.3302
27.3959
27.4619
27.5281
27.5944
27.6609
27.7275
27.7942
27.861
27.9278
27.9947
28.0616
28.1285
28.1954
28.2623
28.329
28.3958
28.4624
28.5289
28.5953
28.6615
28.7276
28.7935
28.8592
28.9247
28.99
29.0551
29.1199
29.1845
29.2488
29.3128
29.3765
29.4398
29.5029
29.5656
29.628
29.69
29.7516
29.8129
29.8738
29.9342
29.9943
30.0539
30.1131
30.1719
30.2302
30.288
30.3454
30.4023
30.4588
30.5147
30.5701
30.6251
30.6795
30.7334
30.7867
30.8396
30.8919
30.9436
30.9948
31.0454
31.0955
31.145
31.1939
31.2423
31.29
31.3372
31.3838
31.4297
31.4751
31.5198
31.564
31.6075
31.6504
31.6927
31.7343
31.7753
31.8157
31.8554
31.8945
31.9329
31.9707
32.0079
32.0443
32.0802
32.1153
32.1498
32.1836
32.2168
32.2493
32.2811
32.3122
32.3427
32.3724
32.4015
32.4299
32.4576
32.4846
32.511
32.5366
32.5615
32.5858
32.6093
32.6322
32.6543
32.6758
32.6965
32.7165
32.7359
32.7545
32.7724
32.7896
32.8061
32.8219
32.837
32.8513
32.865
32.8779
32.8901
32.9016
32.9124
32.9225
32.9318
32.9405
32.9484
32.9556
32.9621
32.9678
32.9729
32.9772
32.9808
32.9837
32.9858
32.9873
32.988
39.3744
39.3644
39.3442
39.3146
39.2756
39.2279
39.1719
39.1082
39.0372
38.9594
38.8751
38.7847
38.6886
38.587
38.4801
38.3683
38.2517
38.1305
38.0048
37.8749
37.7409
37.603
37.4614
37.3161
37.1674
37.0155
36.8604
36.7023
36.5415
36.378
36.212
36.0437
35.8732
35.7007
35.5263
35.3502
35.1726
34.9935
34.8132
34.6318
34.4494
34.2662
34.0823
33.8979
33.7131
33.528
33.3428
33.1575
32.9724
32.7876
32.6031
32.419
32.2357
32.053
31.8711
31.6902
31.5104
31.3317
31.1543
30.9782
30.8036
30.6305
30.459
30.2893
30.1213
29.9552
29.7911
29.629
29.469
29.3111
29.1555
29.0021
28.8512
28.7026
28.5565
28.4128
28.2718
28.1333
27.9975
27.8644
27.7339
27.6063
27.4814
27.3593
27.2401
27.1237
27.0102
26.8996
26.7919
26.6871
26.5853
26.4865
26.3905
26.2976
26.2076
26.1206
26.0365
25.9554
25.8773
25.8021
25.7298
25.6605
25.5941
25.5306
25.47
25.4122
25.3573
25.3053
25.256
25.2096
25.1659
25.1249
25.0867
25.0512
25.0183
24.988
24.9604
24.9353
24.9128
24.8928
24.8753
24.8602
24.8475
24.8372
24.8292
24.8235
24.8201
24.819
24.82
24.8232
24.8285
24.8359
24.8453
24.8567
24.8701
24.8855
24.9027
24.9217
24.9426
24.9653
24.9896
25.0157
25.0434
25.0728
25.1037
25.1362
25.1701
25.2055
25.2424
25.2806
25.3202
25.3611
25.4032
25.4466
25.4912
25.537
25.5839
25.6319
25.6809
25.731
25.782
25.8341
25.887
25.9408
25.9955
26.0509
26.1072
26.1643
26.222