/*--------------------------------*- C++ -*----------------------------------*\
| =========                 |                                                 |
| \\      /  F ield         | OpenFOAM: The Open Source CFD Toolbox           |
|  \\    /   O peration     | Version:  2212                                  |
|   \\  /    A nd           | Website:  www.openfoam.com                      |
|    \\/     M anipulation  |                                                 |
\*---------------------------------------------------------------------------*/
FoamFile
{
    version     2.0;
    format      ascii;
    arch        "LSB;label=32;scalar=64";
    class       surfaceScalarField;
    location    "540";
    object      phi;
}
// * * * * * * * * * * * * * * * * * * * * * * * * * * * * * * * * * * * * * //

dimensions      [1 0 -1 0 0 0 0];

oriented        oriented;

internalField   nonuniform List<scalar> 
408640
(
-1750.5
1749.13
-3461.92
1711.14
-5099.15
1636.95
-6640.63
1541.21
-8080.14
1439.25
-9423.74
1343.34
-10685.3
1261.32
-11881.8
1196.26
-13029.8
1147.76
-14143.3
1113.34
-15233.3
1089.75
-16307.3
1073.79
-17370.3
1062.8
-18425.2
1054.75
-19473.6
1048.2
-20516
1042.23
-21552.5
1036.26
-22582.7
1029.98
-23606.1
1023.22
-24622.2
1015.93
-25630.5
1008.12
-26630.5
999.805
-27621.7
991.038
-28603.8
981.86
-29576.2
972.312
-30538.9
962.433
-31491.3
952.255
-32433.3
941.808
-33364.6
931.116
-34285
920.2
-35194.2
909.08
-36092.2
897.771
-36978.6
886.287
-37853.4
874.643
-38716.5
862.849
-39567.5
850.916
-40406.6
838.854
-41233.4
826.673
-42048
814.38
-42850.1
801.984
-43639.8
789.492
-44416.8
776.912
-45181.2
764.251
-45932.9
751.514
-46671.8
738.71
-47397.8
725.843
-48110.8
712.92
-48810.9
699.946
-49498
686.928
-50172
673.871
-50832.9
660.78
-51480.7
647.661
-52115.4
634.518
-52736.9
621.357
-53345.2
608.183
-53940.3
595.001
-54522.2
581.815
-55091
568.63
-55646.6
555.451
-56189
542.282
-56718.2
529.127
-57234.3
515.992
-57737.3
502.88
-58227.2
489.795
-58704
476.742
-59167.8
463.724
-59618.6
450.746
-60056.5
437.81
-60481.5
424.922
-60893.7
412.085
-61293
399.301
-61679.7
386.576
-62053.7
373.912
-62415
361.312
-62763.9
348.78
-63100.2
336.319
-63424.2
323.932
-63735.9
311.623
-64035.3
299.393
-64322.6
287.246
-64597.8
275.184
-64861
263.211
-65112.3
251.329
-65351.9
239.54
-65579.8
227.846
-65796
216.25
-66000.8
204.755
-66194.1
193.362
-66376.2
182.073
-66547.1
170.891
-66706.9
159.817
-66855.7
148.852
-66993.7
138
-67120.9
127.261
-67237.5
116.637
-67343.6
106.129
-67439.3
95.7385
-67524.7
85.4672
-67600
75.3161
-67665.2
65.2864
-67720.5
55.3789
-67766.1
45.5948
-67801.9
35.9349
-67828.3
26.4001
-67845.2
16.9909
-67852.8
7.70818
-67851.3
-1.44755
-67840.7
-10.4758
-67821.3
-19.3761
-67793
-28.148
-67756.2
-36.7914
-67710.8
-45.3059
-67657
-53.6914
-67594.9
-61.9478
-67524.7
-70.075
-67446.6
-78.073
-67360.5
-85.9421
-67266.7
-93.6822
-67165.3
-101.294
-67056.4
-108.777
-66940.2
-116.131
-66816.7
-123.359
-66686.1
-130.458
-66548.5
-137.431
-66404.1
-144.278
-66253
-150.999
-66095.3
-157.594
-65931.1
-164.065
-65760.5
-170.412
-65583.8
-176.637
-65400.9
-182.738
-65212
-188.719
-65017.3
-194.578
-64816.8
-200.318
-64610.8
-205.94
-64399.2
-211.443
-64182.2
-216.829
-63960
-222.1
-63732.6
-227.256
-63500.1
-232.298
-63262.7
-237.227
-63020.5
-242.045
-62773.6
-246.753
-62522.1
-251.351
-62266.2
-255.841
-62005.8
-260.225
-61741.1
-264.503
-61472.3
-268.676
-61199.4
-272.746
-60922.6
-276.715
-60641.8
-280.583
-60357.3
-284.351
-60069.2
-288.022
-59777.4
-291.596
-59482.2
-295.075
-59183.6
-298.459
-58881.7
-301.751
-58576.7
-304.952
-58268.5
-308.063
-57957.2
-311.085
-57643.1
-314.019
-57326.1
-316.868
-57006.3
-319.632
-56683.9
-322.313
-56358.9
-324.912
-56031.3
-327.43
-55701.3
-329.869
-55369
-332.231
-55034.4
-334.516
-54697.5
-336.725
-54358.6
-338.861
-54017.6
-340.924
-53674.5
-342.917
-53329.6
-344.839
-52982.8
-346.693
-52634.3
-348.479
-52284
-350.2
-51932
-351.856
-51578.5
-353.449
-51223.5
-354.979
-50866.9
-356.449
-50509
-357.859
-50149.8
-359.211
-49789.2
-360.505
-49427.4
-361.744
-49064.4
-362.928
-48700.3
-364.059
-48335.1
-365.137
-47968.9
-366.164
-47601.8
-367.142
-47233.7
-368.07
-46864.7
-368.951
-46494.9
-369.785
-46124.3
-370.574
-45753
-371.319
-45381
-372.02
-45008.3
-372.679
-44635
-373.297
-44261.1
-373.875
-43886.7
-374.415
-43511.8
-374.916
-43136.5
-375.38
-42760.7
-375.808
-42384.6
-376.201
-42008.1
-376.56
-41631.2
-376.886
-41254.1
-377.18
-40876.7
-377.443
-40499.1
-377.676
-40121.3
-377.879
-39743.3
-378.053
-39365.2
-378.2
-38987
-378.32
-38608.7
-378.415
-38230.3
-378.484
-37851.9
-378.529
-37473.4
-378.55
-37095
-378.549
-36716.6
-378.526
-36338.2
-378.482
-35960
-378.417
-35581.8
-378.333
-35203.7
-378.23
-34825.7
-378.109
-34447.9
-377.97
-34070.3
-377.814
-33692.8
-377.643
-33315.5
-377.456
-32938.5
-377.254
-32561.6
-377.038
-32185
-376.808
-31808.7
-376.566
-31432.6
-376.311
-31056.7
-376.044
-30681.2
-375.767
-30305.9
-375.479
-29931
-375.181
-29556.3
-374.873
-29182
-374.557
-28808.1
-374.232
-28434.4
-373.9
-28061.1
-373.56
-27688.2
-373.213
-27315.6
-372.86
-26943.4
-372.501
-26571.5
-372.136
-26200
-371.767
-25828.9
-371.393
-25458.2
-371.015
-25087.9
-370.634
-24718
-370.249
-24348.4
-369.862
-23979.3
-369.472
-23610.5
-369.08
-23242.2
-368.686
-22874.2
-368.292
-22506.7
-367.896
-22139.5
-367.5
-21772.8
-367.103
-21406.4
-366.707
-21040.5
-366.312
-20674.9
-365.917
-20309.8
-365.523
-19945
-365.131
-19580.7
-364.74
-19216.7
-364.352
-18853.2
-363.966
-18490
-363.582
-18127.2
-363.202
-17764.8
-362.825
-17402.7
-362.451
-17041.1
-362.08
-16679.8
-361.714
-16318.8
-361.352
-15958.3
-360.994
-15598.1
-360.641
-15238.2
-360.292
-14878.7
-359.949
-14519.5
-359.611
-14160.7
-359.279
-13802.2
-358.952
-13444
-358.631
-13086.2
-358.316
-12728.6
-358.007
-12371.4
-357.704
-12014.4
-357.409
-11657.8
-357.119
-11301.4
-356.837
-10945.3
-356.562
-10589.5
-356.294
-10234
-356.033
-9878.69
-355.78
-9523.65
-355.534
-9168.84
-355.296
-8814.27
-355.066
-8459.92
-354.844
-8105.79
-354.63
-7751.87
-354.424
-7398.15
-354.226
-7044.62
-354.037
-6691.27
-353.856
-6338.09
-353.684
-5985.09
-353.52
-5632.23
-353.366
-5279.53
-353.22
-4926.96
-353.084
-4574.52
-352.957
-4222.2
-352.839
-3869.98
-352.732
-3517.87
-352.633
-3165.85
-352.545
-2813.9
-352.467
-2462.03
-352.398
-2110.21
-352.34
-1758.44
-352.292
-1406.71
-352.254
-1055.01
-352.225
-703.332
-352.206
-351.664
-352.195
-352.189
-1723.63
3472.49
-3411.98
3399.21
-5032.69
3257.4
-6565.47
3073.73
-8003.56
2877.08
-9351.34
2690.85
-10620.6
2530.32
-11826.3
2401.78
-12983.7
2304.91
-14105.8
2235.26
-15203.1
2186.79
-16282.9
2153.45
-17350.5
2130.12
-18408.7
2112.84
-19459.5
2098.78
-20503.5
2086.07
-21541
2073.54
-22571.7
2060.53
-23595.4
2046.67
-24611.5
2031.85
-25619.6
2016.04
-26619.3
1999.27
-27610
1981.64
-28591.6
1963.2
-29563.5
1944.04
-30525.5
1924.24
-31477.2
1903.85
-32418.5
1882.92
-33349.1
1861.52
-34268.8
1839.67
-35177.3
1817.41
-36074.5
1794.78
-36960.1
1771.81
-37834.2
1748.51
-38696.4
1724.92
-39546.7
1701.05
-40385
1676.92
-41211
1652.56
-42024.8
1627.97
-42826.1
1603.18
-43615
1578.2
-44391.3
1553.04
-45154.9
1527.72
-45905.8
1502.25
-46643.9
1476.64
-47369.1
1450.91
-48081.4
1425.07
-48780.7
1399.13
-49467
1373.09
-50140.3
1346.99
-50800.5
1320.81
-51447.5
1294.58
-52081.4
1268.3
-52702.2
1241.98
-53309.8
1215.64
-53904.2
1189.28
-54485.4
1162.91
-55053.4
1136.55
-55608.3
1110.2
-56150
1083.87
-56678.5
1057.57
-57193.9
1031.31
-57696.3
1005.09
-58185.5
978.927
-58661.7
952.828
-59124.8
926.801
-59575
900.852
-60012.3
874.991
-60436.6
849.223
-60848.2
823.557
-61247
797.999
-61633
772.557
-62006.4
747.238
-62367.2
722.047
-62715.4
696.993
-63051.3
672.081
-63374.7
647.316
-63685.8
622.706
-63984.7
598.256
-64271.5
573.972
-64546.2
549.859
-64808.9
525.922
-65059.7
502.167
-65298.8
478.599
-65526.2
455.222
-65742
432.041
-65946.3
409.06
-66139.2
386.284
-66320.9
363.717
-66491.3
341.362
-66650.7
319.224
-66799.1
297.306
-66936.7
275.612
-67063.6
254.144
-67179.8
232.906
-67285.5
211.9
-67380.9
191.13
-67466
170.598
-67540.9
150.306
-67605.8
130.257
-67660.9
110.452
-67706.1
90.8946
-67741.7
71.5852
-67767.7
52.5257
-67784.4
33.7178
-67791.8
15.1626
-67790
-3.13858
-67779.2
-21.1848
-67759.5
-38.9752
-67731.1
-56.5089
-67694
-73.7855
-67648.4
-90.8044
-67594.4
-107.565
-67532.2
-124.068
-67461.9
-140.313
-67383.5
-156.299
-67297.3
-172.027
-67203.4
-187.498
-67101.9
-202.711
-66992.9
-217.667
-66876.5
-232.367
-66752.9
-246.812
-66622.3
-261.002
-66484.6
-274.938
-66340.2
-288.622
-66189
-302.054
-66031.2
-315.236
-65867
-328.169
-65696.4
-340.855
-65519.6
-353.294
-65336.7
-365.489
-65147.8
-377.441
-64953.1
-389.152
-64752.7
-400.623
-64546.6
-411.857
-64335.1
-422.856
-64118.1
-433.62
-63895.9
-444.153
-63668.6
-454.457
-63436.2
-464.533
-63198.9
-474.384
-62956.8
-484.012
-62710
-493.419
-62458.6
-502.608
-62202.7
-511.581
-61942.4
-520.341
-61677.9
-528.889
-61409.2
-537.229
-61136.4
-545.363
-60859.7
-553.293
-60579.1
-561.022
-60294.8
-568.552
-60006.8
-575.887
-59715.2
-583.028
-59420.2
-589.979
-59121.7
-596.742
-58820
-603.32
-58515.1
-609.715
-58207.1
-615.93
-57896.1
-621.968
-57582.2
-627.832
-57265.4
-633.523
-56945.9
-639.046
-56623.7
-644.402
-56298.9
-649.594
-55971.5
-654.626
-55641.8
-659.499
-55309.7
-664.217
-54975.3
-668.781
-54638.7
-673.196
-54300
-677.463
-53959.3
-681.585
-53616.5
-685.564
-53271.9
-689.404
-52925.4
-693.108
-52577.1
-696.676
-52227.1
-700.113
-51875.4
-703.421
-51522.2
-706.602
-51167.5
-709.659
-50811.2
-712.595
-50453.6
-715.411
-50094.7
-718.111
-49734.4
-720.696
-49372.9
-723.17
-49010.3
-725.535
-48646.5
-727.793
-48281.7
-729.946
-47915.8
-731.998
-47548.9
-733.949
-47181.2
-735.803
-46812.6
-737.562
-46443.1
-739.227
-46072.9
-740.802
-45701.9
-742.289
-45330.2
-743.689
-44957.9
-745.004
-44585
-746.238
-44211.5
-747.392
-43837.4
-748.468
-43462.9
-749.468
-43087.9
-750.394
-42712.5
-751.248
-42336.7
-752.032
-41960.6
-752.748
-41584.1
-753.398
-41207.4
-753.984
-40830.4
-754.508
-40453.1
-754.971
-40075.7
-755.375
-39698.1
-755.723
-39320.4
-756.015
-38942.5
-756.254
-38564.6
-756.441
-38186.6
-756.578
-37808.6
-756.666
-37430.5
-756.708
-37052.5
-756.704
-36674.5
-756.656
-36296.6
-756.567
-35918.7
-756.436
-35540.9
-756.267
-35163.2
-756.059
-34785.7
-755.816
-34408.2
-755.537
-34031
-755.225
-33653.9
-754.881
-33277.1
-754.506
-32900.4
-754.101
-32524
-753.668
-32147.8
-753.208
-31771.8
-752.722
-31396.1
-752.212
-31020.7
-751.678
-30645.6
-751.123
-30270.7
-750.546
-29896.2
-749.949
-29522
-749.333
-29148.1
-748.7
-28774.5
-748.05
-28401.3
-747.384
-28028.4
-746.704
-27655.9
-746.01
-27283.7
-745.303
-26911.9
-744.585
-26540.5
-743.856
-26169.4
-743.117
-25798.7
-742.369
-25428.4
-741.613
-25058.5
-740.849
-24689
-740.08
-24319.9
-739.305
-23951.1
-738.524
-23582.8
-737.74
-23214.9
-736.953
-22847.3
-736.163
-22480.2
-735.372
-22113.5
-734.579
-21747.2
-733.787
-21381.2
-732.994
-21015.7
-732.203
-20650.6
-731.413
-20285.9
-730.625
-19921.5
-729.841
-19557.6
-729.06
-19194
-728.283
-18830.9
-727.511
-18468.1
-726.744
-18105.8
-725.982
-17743.8
-725.228
-17382.1
-724.48
-17020.9
-723.739
-16660
-723.006
-16299.5
-722.282
-15939.4
-721.566
-15579.6
-720.86
-15220.2
-720.163
-14861.1
-719.477
-14502.3
-718.801
-14143.9
-718.136
-13785.8
-717.482
-13428.1
-716.84
-13070.6
-716.21
-12713.5
-715.592
-12356.7
-714.988
-12000.2
-714.396
-11644
-713.818
-11288
-713.253
-10932.3
-712.703
-10577
-712.167
-10221.8
-711.645
-9866.95
-711.139
-9512.33
-710.647
-9157.94
-710.171
-8803.79
-709.711
-8449.86
-709.267
-8096.15
-708.838
-7742.65
-708.426
-7389.35
-708.031
-7036.23
-707.652
-6683.3
-707.291
-6330.55
-706.947
-5977.96
-706.62
-5625.53
-706.311
-5273.24
-706.02
-4921.09
-705.748
-4569.07
-705.494
-4217.17
-705.258
-3865.37
-705.042
-3513.68
-704.846
-3162.08
-704.669
-2810.55
-704.513
-2459.1
-704.376
-2107.7
-704.26
-1756.35
-704.164
-1405.04
-704.087
-1053.76
-704.03
-702.499
-703.991
-351.249
-703.969
-703.963
-1694.17
5166.38
-3356.2
5060.97
-4957.51
4858.43
-6479.53
4595.47
-7915.12
4312.41
-9267.05
4042.53
-10544.9
3807.9
-11761.5
3618.15
-12930.2
3473.43
-14063.1
3367.88
-15169.7
3293.2
-16257.3
3240.9
-17331
3203.64
-18394.1
3175.69
-19448.4
3152.9
-20495
3132.47
-21534.2
3112.61
-22566.2
3092.26
-23590.5
3070.86
-24607
3048.16
-25615.3
3024.09
-26614.9
2998.69
-27605.5
2972.03
-28586.7
2944.22
-29558.2
2915.36
-30519.7
2885.56
-31470.9
2854.9
-32411.6
2823.45
-33341.6
2791.3
-34260.6
2758.48
-35168.4
2725.07
-36064.9
2691.1
-36949.9
2656.61
-37823.2
2621.65
-38684.7
2586.25
-39534.3
2550.44
-40371.7
2514.24
-41197
2477.69
-42010
2440.8
-42810.6
2403.61
-43598.7
2366.14
-44374.3
2328.4
-45137.1
2290.42
-45887.2
2252.21
-46624.6
2213.81
-47349
2175.21
-48060.5
2136.45
-48759.1
2097.54
-49444.7
2058.5
-50117.2
2019.34
-50776.6
1980.08
-51422.9
1940.74
-52056
1901.33
-52676.1
1861.86
-53282.9
1822.36
-53876.6
1782.83
-54457.1
1743.29
-55024.4
1703.75
-55578.5
1664.23
-56119.5
1624.75
-56647.4
1585.3
-57162.1
1545.92
-57663.7
1506.6
-58152.2
1467.37
-58627.7
1428.23
-59090.2
1389.2
-59539.7
1350.29
-59976.3
1311.51
-60400.1
1272.87
-60811
1234.38
-61209.1
1196.06
-61594.5
1157.91
-61967.3
1119.94
-62327.4
1082.17
-62675.1
1044.6
-63010.3
1007.24
-63333.1
970.107
-63643.7
933.205
-63942
896.543
-64228.2
860.13
-64502.3
823.973
-64764.5
788.082
-65014.8
752.463
-65253.3
717.124
-65480.2
682.072
-65695.5
647.315
-65899.3
612.858
-66091.7
578.708
-66272.8
544.871
-66442.8
511.354
-66601.7
478.161
-66749.7
445.299
-66886.9
412.772
-67013.3
380.584
-67129.1
348.742
-67234.4
317.248
-67329.3
286.108
-67414
255.325
-67488.5
224.902
-67553.1
194.843
-67607.7
165.151
-67652.6
135.829
-67687.8
106.88
-67713.5
78.3061
-67729.9
50.1092
-67736.9
22.2914
-67734.8
-5.14541
-67723.7
-32.1998
-67703.7
-58.8703
-67675
-85.1561
-67637.6
-111.056
-67591.8
-136.569
-67537.6
-161.696
-67475.1
-186.435
-67404.5
-210.787
-67325.9
-234.752
-67239.5
-258.33
-67145.4
-281.521
-67043.7
-304.326
-66934.5
-326.746
-66817.9
-348.782
-66694.2
-370.434
-66563.4
-391.705
-66425.6
-412.595
-66281
-433.107
-66129.7
-453.241
-65971.8
-473
-65807.4
-492.386
-65636.7
-511.401
-65459.8
-530.046
-65276.9
-548.325
-65087.9
-566.239
-64893.1
-583.792
-64692.6
-600.986
-64486.5
-617.824
-64274.9
-634.309
-64058
-650.443
-63835.7
-666.23
-63608.4
-681.672
-63376
-696.774
-63138.7
-711.538
-62896.6
-725.968
-62649.8
-740.067
-62398.4
-753.838
-62142.6
-767.286
-61882.4
-780.414
-61617.9
-793.225
-61349.2
-805.723
-61076.5
-817.912
-60799.9
-829.796
-60519.4
-841.379
-60235.1
-852.664
-59947.2
-863.655
-59655.8
-874.357
-59360.8
-884.773
-59062.5
-894.907
-58760.9
-904.764
-58456.2
-914.346
-58148.3
-923.659
-57837.5
-932.707
-57523.7
-941.492
-57207
-950.02
-56887.7
-958.295
-56565.6
-966.32
-56241
-974.1
-55913.9
-981.639
-55584.3
-988.94
-55252.4
-996.008
-54918.2
-1002.85
-54581.9
-1009.46
-54243.4
-1015.85
-53902.8
-1022.03
-53560.3
-1027.99
-53215.9
-1033.74
-52869.6
-1039.29
-52521.6
-1044.63
-52171.8
-1049.78
-51820.4
-1054.74
-51467.4
-1059.5
-51112.9
-1064.08
-50757
-1068.48
-50399.6
-1072.7
-50040.9
-1076.74
-49681
-1080.61
-49319.8
-1084.32
-48957.4
-1087.86
-48593.9
-1091.24
-48229.3
-1094.46
-47863.8
-1097.53
-47497.2
-1100.46
-47129.8
-1103.23
-46761.5
-1105.87
-46392.3
-1108.36
-46022.4
-1110.72
-45651.7
-1112.94
-45280.4
-1115.04
-44908.4
-1117.01
-44535.8
-1118.85
-44162.6
-1120.58
-43788.9
-1122.19
-43414.7
-1123.68
-43040.1
-1125.07
-42665
-1126.35
-42289.6
-1127.52
-41913.8
-1128.59
-41537.6
-1129.56
-41161.3
-1130.44
-40784.6
-1131.22
-40407.7
-1131.91
-40030.7
-1132.51
-39653.4
-1133.03
-39276.1
-1133.47
-38898.6
-1133.82
-38521
-1134.1
-38143.4
-1134.3
-37765.8
-1134.43
-37388.1
-1134.49
-37010.4
-1134.48
-36632.8
-1134.41
-36255.2
-1134.27
-35877.7
-1134.07
-35500.3
-1133.82
-35123
-1133.5
-34745.9
-1133.14
-34368.8
-1132.72
-33992
-1132.25
-33615.3
-1131.73
-33238.8
-1131.16
-32862.6
-1130.56
-32486.5
-1129.9
-32110.7
-1129.21
-31735.2
-1128.48
-31359.9
-1127.72
-30984.9
-1126.91
-30610.1
-1126.08
-30235.7
-1125.21
-29861.5
-1124.32
-29487.7
-1123.39
-29114.2
-1122.44
-28741.1
-1121.46
-28368.2
-1120.46
-27995.8
-1119.44
-27623.6
-1118.4
-27251.9
-1117.34
-26880.5
-1116.26
-26509.5
-1115.17
-26138.8
-1114.06
-25768.5
-1112.93
-25398.7
-1111.8
-25029.2
-1110.65
-24660.1
-1109.5
-24291.3
-1108.33
-23923
-1107.16
-23555.1
-1105.99
-23187.6
-1104.81
-22820.5
-1103.62
-22453.8
-1102.43
-22087.4
-1101.24
-21721.5
-1100.05
-21356
-1098.86
-20990.9
-1097.68
-20626.2
-1096.49
-20261.9
-1095.31
-19898
-1094.13
-19534.5
-1092.96
-19171.3
-1091.8
-18808.6
-1090.64
-18446.3
-1089.49
-18084.3
-1088.34
-17722.7
-1087.21
-17361.5
-1086.09
-17000.7
-1084.98
-16640.3
-1083.88
-16280.2
-1082.79
-15920.4
-1081.72
-15561.1
-1080.66
-15202.1
-1079.61
-14843.4
-1078.58
-14485.1
-1077.57
-14127.1
-1076.57
-13769.4
-1075.59
-13412.1
-1074.63
-13055.1
-1073.68
-12698.4
-1072.76
-12342
-1071.85
-11985.9
-1070.96
-11630.1
-1070.1
-11274.5
-1069.25
-10919.3
-1068.42
-10564.3
-1067.62
-10209.6
-1066.84
-9855.16
-1066.08
-9500.96
-1065.34
-9146.99
-1064.63
-8793.26
-1063.94
-8439.76
-1063.27
-8086.47
-1062.63
-7733.39
-1062.01
-7380.5
-1061.42
-7027.81
-1060.85
-6675.31
-1060.31
-6322.97
-1059.79
-5970.8
-1059.3
-5618.79
-1058.84
-5266.92
-1058.4
-4915.2
-1057.99
-4563.6
-1057.61
-4212.12
-1057.26
-3860.74
-1056.93
-3509.47
-1056.64
-3158.29
-1056.37
-2807.19
-1056.14
-2456.15
-1055.93
-2105.18
-1055.76
-1754.25
-1055.61
-1403.36
-1055.5
-1052.5
-1055.41
-701.658
-1055.36
-350.827
-1055.32
-1055.31
-1656.08
6822.19
-3284.32
6688.94
-4860.58
6434.43
-6368.49
6103.1
-7800.61
5744.26
-9157.78
5399.44
-10446.8
5096.68
-11677.8
4848.93
-12861.9
4657.28
-14009.4
4515.15
-15129.1
4412.65
-16227.7
4339.36
-17310.4
4286.1
-18380.5
4245.58
-19440.2
4212.43
-20490.8
4182.93
-21533.1
4154.67
-22567.2
4126.16
-23593.1
4096.58
-24610.6
4065.52
-25619.5
4032.82
-26619.5
3998.49
-27610.3
3962.59
-28591.5
3925.25
-29562.9
3886.56
-30524.2
3846.66
-31475.1
3805.64
-32415.4
3763.61
-33344.9
3720.64
-34263.4
3676.82
-35170.8
3632.21
-36066.7
3586.86
-36951.1
3540.84
-37823.8
3494.19
-38684.7
3446.96
-39533.6
3399.18
-40370.5
3350.9
-41195.1
3302.15
-42007.4
3252.95
-42807.3
3203.35
-43594.7
3153.38
-44369.5
3103.05
-45131.7
3052.4
-45881.1
3001.46
-46617.7
2950.25
-47341.4
2898.79
-48052.2
2847.11
-48750
2795.23
-49434.8
2743.17
-50106.6
2690.96
-50765.3
2638.62
-51410.8
2586.16
-52043.2
2533.61
-52662.5
2481
-53268.6
2428.33
-53861.5
2375.63
-54441.3
2322.91
-55007.8
2270.21
-55561.2
2217.52
-56101.5
2164.88
-56628.6
2112.3
-57142.6
2059.79
-57643.4
2007.38
-58131.2
1955.08
-58606
1902.91
-59067.8
1850.88
-59516.6
1799.01
-59952.5
1747.31
-60375.5
1695.8
-60785.6
1644.49
-61183.1
1593.41
-61567.8
1542.55
-61939.8
1491.94
-62299.3
1441.59
-62646.3
1391.51
-62980.8
1341.72
-63302.9
1292.22
-63612.8
1243.03
-63910.5
1194.16
-64196
1145.63
-64469.5
1097.43
-64731
1049.59
-64980.7
1002.12
-65218.6
955.013
-65444.8
908.294
-65659.5
861.966
-65862.6
816.04
-66054.5
770.524
-66235
725.426
-66404.4
680.753
-66562.7
636.514
-66710.1
592.714
-66846.7
549.363
-66972.5
506.464
-67087.8
464.026
-67192.6
422.053
-67287
380.551
-67371.1
339.525
-67445.1
298.98
-67509.2
258.92
-67563.3
219.35
-67607.7
180.274
-67642.4
141.694
-67667.7
103.614
-67683.5
66.0378
-67690.1
28.967
-67687.6
-7.59585
-67676.1
-43.6487
-67655.7
-79.1898
-67626.5
-114.218
-67588.8
-148.731
-67542.5
-182.729
-67487.9
-216.211
-67425
-249.177
-67354.1
-281.627
-67275.2
-313.56
-67188.4
-344.977
-67094
-375.878
-66991.9
-406.265
-66882.4
-436.139
-66765.6
-465.5
-66641.5
-494.35
-66510.4
-522.692
-66372.4
-550.526
-66227.5
-577.855
-66075.9
-604.681
-65917.8
-631.007
-65753.2
-656.835
-65582.3
-682.169
-65405.2
-707.01
-65222
-731.363
-65032.9
-755.23
-64837.9
-778.615
-64637.2
-801.521
-64431
-823.953
-64219.2
-845.914
-64002.1
-867.408
-63779.8
-888.438
-63552.3
-909.01
-63319.8
-929.128
-63082.4
-948.796
-62840.2
-968.018
-62593.3
-986.799
-62341.8
-1005.14
-62085.9
-1023.06
-61825.7
-1040.54
-61561.1
-1057.61
-61292.4
-1074.26
-61019.7
-1090.49
-60743.1
-1106.32
-60462.5
-1121.75
-60178.3
-1136.78
-59890.4
-1151.42
-59598.9
-1165.67
-59304
-1179.54
-59005.8
-1193.04
-58704.2
-1206.17
-58399.5
-1218.93
-58091.7
-1231.33
-57780.9
-1243.38
-57467.2
-1255.08
-57150.6
-1266.44
-56831.3
-1277.46
-56509.4
-1288.14
-56184.9
-1298.5
-55857.9
-1308.54
-55528.4
-1318.26
-55196.6
-1327.67
-54862.6
-1336.78
-54526.4
-1345.58
-54188
-1354.1
-53847.6
-1362.32
-53505.3
-1370.25
-53161
-1377.91
-52814.9
-1385.3
-52467
-1392.41
-52117.5
-1399.27
-51766.3
-1405.86
-51413.5
-1412.21
-51059.2
-1418.3
-50703.4
-1424.15
-50346.3
-1429.77
-49987.8
-1435.15
-49628.1
-1440.3
-49267.1
-1445.23
-48905
-1449.94
-48541.8
-1454.44
-48177.4
-1458.73
-47812.1
-1462.82
-47445.8
-1466.71
-47078.7
-1470.4
-46710.6
-1473.9
-46341.7
-1477.22
-45972.1
-1480.35
-45601.7
-1483.31
-45230.6
-1486.1
-44858.9
-1488.72
-44486.6
-1491.17
-44113.7
-1493.47
-43740.3
-1495.6
-43366.4
-1497.59
-42992.1
-1499.43
-42617.4
-1501.13
-42242.2
-1502.69
-41866.8
-1504.11
-41491
-1505.4
-41114.9
-1506.56
-40738.6
-1507.6
-40362.1
-1508.51
-39985.3
-1509.31
-39608.4
-1510
-39231.4
-1510.57
-38854.3
-1511.04
-38477.1
-1511.41
-38099.8
-1511.67
-37722.5
-1511.84
-37345.2
-1511.92
-36967.9
-1511.9
-36590.6
-1511.8
-36213.4
-1511.61
-35836.3
-1511.34
-35459.3
-1511
-35082.3
-1510.58
-34705.5
-1510.08
-34328.9
-1509.52
-33952.4
-1508.89
-33576.1
-1508.2
-33200
-1507.44
-32824.1
-1506.62
-32448.5
-1505.75
-32073.1
-1504.83
-31697.9
-1503.85
-31323
-1502.83
-30948.4
-1501.76
-30574
-1500.64
-30200
-1499.48
-29826.3
-1498.28
-29452.8
-1497.05
-29079.7
-1495.78
-28707
-1494.47
-28334.6
-1493.14
-27962.5
-1491.78
-27590.8
-1490.38
-27219.4
-1488.97
-26848.4
-1487.53
-26477.8
-1486.07
-26107.6
-1484.59
-25737.7
-1483.09
-25368.2
-1481.57
-24999.2
-1480.04
-24630.5
-1478.5
-24262.2
-1476.95
-23894.3
-1475.39
-23526.8
-1473.82
-23159.7
-1472.24
-22793
-1470.66
-22426.7
-1469.07
-22060.8
-1467.49
-21695.3
-1465.9
-21330.2
-1464.31
-20965.5
-1462.73
-20601.2
-1461.15
-20237.3
-1459.57
-19873.8
-1458
-19510.8
-1456.44
-19148.1
-1454.88
-18785.7
-1453.34
-18423.8
-1451.8
-18062.3
-1450.28
-17701.1
-1448.77
-17340.4
-1447.27
-16980
-1445.79
-16619.9
-1444.32
-16260.3
-1442.88
-15901
-1441.44
-15542.1
-1440.03
-15183.5
-1438.64
-14825.2
-1437.26
-14467.3
-1435.91
-14109.8
-1434.58
-13752.5
-1433.27
-13395.6
-1431.99
-13039.1
-1430.73
-12682.8
-1429.49
-12326.8
-1428.28
-11971.1
-1427.1
-11615.8
-1425.94
-11260.7
-1424.81
-10905.9
-1423.71
-10551.3
-1422.64
-10197.1
-1421.6
-9843.03
-1420.58
-9489.26
-1419.6
-9135.73
-1418.65
-8782.43
-1417.73
-8429.35
-1416.84
-8076.5
-1415.98
-7723.85
-1415.16
-7371.4
-1414.37
-7019.14
-1413.61
-6667.07
-1412.89
-6315.17
-1412.2
-5963.43
-1411.54
-5611.85
-1410.93
-5260.42
-1410.34
-4909.12
-1409.8
-4557.96
-1409.29
-4206.91
-1408.82
-3855.97
-1408.39
-3505.14
-1407.99
-3154.39
-1407.64
-2803.72
-1407.33
-2453.12
-1407.06
-2102.57
-1406.82
-1752.08
-1406.63
-1401.63
-1406.48
-1051.2
-1406.36
-700.794
-1406.29
-350.397
-1406.25
-1406.24
-1624.09
8446
-3223.8
8288.37
-4778.63
7988.98
-6274.05
7598.25
-7702.59
7172.53
-9063.66
6760.25
-10361.9
6394.69
-11605.2
6092
-12802.7
5854.55
-13963.4
5675.56
-15095
5544.05
-16203.9
5448.13
-17295.2
5377.13
-18372.2
5322.38
-19437.3
5277.39
-20492.2
5237.59
-21537.6
5199.93
-22574.1
5162.46
-23601.8
5124.08
-24620.6
5084.17
-25630.5
5042.47
-26631.1
4998.92
-27622.2
4953.56
-28603.6
4906.49
-29575.1
4857.83
-30536.3
4807.71
-31487.1
4756.24
-32427.2
4703.54
-33356.5
4649.7
-34274.6
4594.81
-35181.5
4538.95
-36077.1
4482.2
-36961
4424.61
-37833.2
4366.24
-38693.6
4307.15
-39541.9
4247.39
-40378.2
4186.99
-41202.2
4126.02
-42014
4064.5
-42813.2
4002.48
-43600
3939.99
-44374.2
3877.06
-45135.7
3813.74
-45884.4
3750.04
-46620.4
3686.02
-47343.4
3621.68
-48053.5
3557.07
-48750.7
3492.22
-49434.8
3427.14
-50105.8
3361.87
-50763.8
3296.44
-51408.6
3230.87
-52040.3
3165.18
-52658.9
3099.41
-53264.3
3033.58
-53856.5
2967.7
-54435.5
2901.81
-55001.3
2835.93
-55554
2770.08
-56093.5
2704.28
-56619.9
2638.56
-57133.1
2572.93
-57633.3
2507.42
-58120.3
2442.05
-58594.4
2376.85
-59055.4
2311.82
-59503.4
2246.98
-59938.6
2182.37
-60360.9
2117.99
-60770.3
2053.87
-61167
1990.02
-61551
1926.46
-61922.3
1863.21
-62281
1800.29
-62627.3
1737.7
-62961.1
1675.47
-63282.5
1613.61
-63591.7
1552.14
-63888.6
1491.07
-64173.4
1430.41
-64446.2
1370.19
-64707.1
1310.4
-64956
1251.07
-65193.2
1192.21
-65418.8
1133.83
-65632.8
1075.94
-65835.3
1018.55
-66026.4
961.67
-66206.3
905.315
-66375
849.493
-66532.7
794.213
-66679.4
739.484
-66815.4
685.314
-66940.6
631.711
-67055.2
578.683
-67159.4
526.238
-67253.2
474.381
-67336.7
423.12
-67410.1
372.461
-67473.6
322.408
-67527.1
272.968
-67570.9
224.144
-67605.1
175.942
-67629.8
128.366
-67645.1
81.4181
-67651.2
35.1029
-67648.1
-10.5773
-67636.1
-55.6197
-67615.2
-100.022
-67585.5
-143.783
-67547.2
-186.901
-67500.5
-229.374
-67445.4
-271.203
-67382.1
-312.385
-67310.7
-352.923
-67231.3
-392.814
-67144.1
-432.061
-67049.2
-470.663
-66946.8
-508.622
-66836.9
-545.939
-66719.6
-582.615
-66595.2
-618.653
-66463.7
-654.055
-66325.3
-688.823
-66180.1
-722.959
-66028.1
-756.467
-65869.7
-789.349
-65704.8
-821.61
-65533.5
-853.252
-65356.1
-884.279
-65172.7
-914.695
-64983.3
-944.504
-64788
-973.71
-64587.1
-1002.32
-64380.6
-1030.33
-64168.6
-1057.76
-63951.2
-1084.6
-63728.6
-1110.87
-63501
-1136.56
-63268.3
-1161.68
-63030.7
-1186.24
-62788.3
-1210.25
-62541.2
-1233.7
-62289.6
-1256.61
-62033.6
-1278.98
-61773.1
-1300.81
-61508.5
-1322.12
-61239.7
-1342.91
-60966.9
-1363.18
-60690.1
-1382.94
-60409.5
-1402.21
-60125.1
-1420.97
-59837.2
-1439.25
-59545.7
-1457.05
-59250.7
-1474.37
-58952.4
-1491.22
-58650.8
-1507.6
-58346.1
-1523.54
-58038.3
-1539.02
-57727.4
-1554.06
-57413.7
-1568.67
-57097.2
-1582.84
-56777.9
-1596.6
-56456
-1609.94
-56131.5
-1622.87
-55804.5
-1635.4
-55475.2
-1647.53
-55143.4
-1659.28
-54809.5
-1670.64
-54473.3
-1681.63
-54135.1
-1692.25
-53794.8
-1702.51
-53452.5
-1712.42
-53108.3
-1721.98
-52762.4
-1731.19
-52414.6
-1740.07
-52065.2
-1748.62
-51714.1
-1756.85
-51361.5
-1764.76
-51007.3
-1772.37
-50651.8
-1779.67
-50294.8
-1786.67
-49936.5
-1793.38
-49576.9
-1799.81
-49216.1
-1805.96
-48854.2
-1811.84
-48491.1
-1817.45
-48127
-1822.8
-47761.9
-1827.9
-47395.9
-1832.74
-47028.9
-1837.35
-46661.1
-1841.71
-46292.4
-1845.85
-45923
-1849.75
-45552.9
-1853.44
-45182
-1856.91
-44810.6
-1860.18
-44438.5
-1863.23
-44065.9
-1866.09
-43692.8
-1868.76
-43319.2
-1871.23
-42945.1
-1873.52
-42570.6
-1875.63
-42195.8
-1877.57
-41820.6
-1879.34
-41445.1
-1880.94
-41069.4
-1882.39
-40693.3
-1883.67
-40317.1
-1884.81
-39940.7
-1885.8
-39564.1
-1886.65
-39187.4
-1887.36
-38810.6
-1887.94
-38433.7
-1888.39
-38056.8
-1888.72
-37679.8
-1888.92
-37302.8
-1889.01
-36925.9
-1888.98
-36548.9
-1888.85
-36172.1
-1888.61
-35795.3
-1888.27
-35418.6
-1887.83
-35042
-1887.3
-34665.6
-1886.68
-34289.3
-1885.97
-33913.2
-1885.17
-33537.3
-1884.3
-33161.5
-1883.35
-32786
-1882.33
-32410.7
-1881.23
-32035.7
-1880.07
-31660.9
-1878.85
-31286.4
-1877.56
-30912.1
-1876.22
-30538.2
-1874.82
-30164.5
-1873.37
-29791.1
-1871.87
-29418.1
-1870.32
-29045.4
-1868.73
-28673
-1867.1
-28301
-1865.42
-27929.3
-1863.72
-27558
-1861.97
-27187.1
-1860.2
-26816.5
-1858.4
-26446.2
-1856.57
-26076.4
-1854.71
-25707
-1852.84
-25337.9
-1850.94
-24969.2
-1849.03
-24600.9
-1847.1
-24233
-1845.16
-23865.5
-1843.2
-23498.4
-1841.24
-23131.8
-1839.26
-22765.5
-1837.29
-22399.6
-1835.3
-22034.1
-1833.32
-21669
-1831.33
-21304.4
-1829.35
-20940.1
-1827.37
-20576.2
-1825.39
-20212.7
-1823.42
-19849.7
-1821.45
-19487
-1819.5
-19124.7
-1817.55
-18762.8
-1815.62
-18401.3
-1813.7
-18040.2
-1811.79
-17679.5
-1809.9
-17319.2
-1808.03
-16959.2
-1806.18
-16599.6
-1804.34
-16240.4
-1802.53
-15881.5
-1800.74
-15523
-1798.97
-15164.8
-1797.23
-14807
-1795.51
-14449.5
-1793.82
-14092.4
-1792.16
-13735.6
-1790.52
-13379.1
-1788.92
-13023
-1787.34
-12667.1
-1785.79
-12311.6
-1784.28
-11956.4
-1782.8
-11601.4
-1781.36
-11246.8
-1779.94
-10892.4
-1778.57
-10538.3
-1777.23
-10184.4
-1775.92
-9830.84
-1774.65
-9477.5
-1773.43
-9124.41
-1772.24
-8771.54
-1771.08
-8418.9
-1769.97
-8066.48
-1768.9
-7714.26
-1767.87
-7362.25
-1766.88
-7010.43
-1765.94
-6658.79
-1765.03
-6307.32
-1764.17
-5956.02
-1763.35
-5604.88
-1762.58
-5253.88
-1761.85
-4903.02
-1761.17
-4552.29
-1760.54
-4201.68
-1759.95
-3851.18
-1759.41
-3500.77
-1758.92
-3150.46
-1758.47
-2800.23
-1758.08
-2450.06
-1757.74
-2099.96
-1757.45
-1749.9
-1757.21
-1399.88
-1757.02
-1049.89
-1756.88
-699.921
-1756.78
-349.959
-1756.73
-1756.72
-1593.14
10038.9
-3165.34
9860.29
-4699.32
9522.69
-6182.28
9080.93
-7606.86
8596.83
-8971.29
8124.42
-10278.3
7701.44
-11533.6
7347.11
-12744.6
7065.26
-13918.6
6849.4
-15062.7
6687.92
-16182.7
6567.9
-17283.2
6477.48
-18367.9
6406.87
-19439.3
6348.57
-20499.1
6297.19
-21548.4
6249.05
-22587.9
6201.77
-23617.9
6153.89
-24638.5
6104.59
-25649.7
6053.46
-26651.3
6000.35
-27643.2
5945.26
-28625.2
5888.25
-29597
5829.45
-30558.4
5768.96
-31509.3
5706.93
-32449.4
5643.47
-33378.5
5578.67
-34296.5
5512.65
-35203.3
5445.49
-36098.5
5377.27
-36982.1
5308.06
-37854
5237.93
-38714
5166.95
-39561.9
5095.17
-40397.7
5022.64
-41221.3
4949.42
-42032.5
4875.56
-42831.3
4801.09
-43617.5
4726.06
-44391.2
4650.52
-45152.1
4574.5
-45900.2
4498.04
-46635.6
4421.19
-47358
4343.97
-48067.5
4266.41
-48764
4188.57
-49447.5
4110.46
-50117.9
4032.13
-50775.1
3953.59
-51419.3
3874.9
-52050.3
3796.07
-52668.2
3717.13
-53272.8
3638.12
-53864.3
3559.06
-54442.6
3479.99
-55007.7
3400.92
-55559.7
3321.9
-56098.4
3242.94
-56624.1
3164.07
-57136.5
3085.32
-57635.9
3006.71
-58122.2
2928.27
-58595.5
2850.02
-59055.8
2771.98
-59503
2694.19
-59937.4
2616.65
-60358.9
2539.41
-60767.6
2462.47
-61163.5
2385.85
-61546.7
2309.59
-61917.2
2233.7
-62275.2
2158.19
-62620.6
2083.1
-62953.6
2008.43
-63274.3
1934.21
-63582.6
1860.46
-63878.8
1787.18
-64162.8
1714.41
-64434.8
1642.15