/*--------------------------------*- C++ -*----------------------------------*\
| =========                 |                                                 |
| \\      /  F ield         | OpenFOAM: The Open Source CFD Toolbox           |
|  \\    /   O peration     | Version:  2212                                  |
|   \\  /    A nd           | Website:  www.openfoam.com                      |
|    \\/     M anipulation  |                                                 |
\*---------------------------------------------------------------------------*/
FoamFile
{
    version     2.0;
    format      ascii;
    arch        "LSB;label=32;scalar=64";
    class       volScalarField;
    location    "560";
    object      p_rgh_0;
}
// * * * * * * * * * * * * * * * * * * * * * * * * * * * * * * * * * * * * * //

dimensions      [1 -1 -2 0 0 0 0];

internalField   nonuniform List<scalar> 
204800
(
44.0705
44.0612
44.0452
44.0213
43.9896
43.9502
43.9031
43.8486
43.787
43.7187
43.6439
43.563
43.4762
43.3838
43.286
43.1829
43.0748
42.9617
42.8438
42.7213
42.5943
42.463
42.3275
42.1879
42.0445
41.8973
41.7464
41.5922
41.4346
41.2739
41.1101
40.9435
40.7742
40.6023
40.428
40.2514
40.0727
39.892
39.7094
39.5251
39.3393
39.152
38.9633
38.7736
38.5827
38.391
38.1984
38.0052
37.8114
37.6172
37.4228
37.2281
37.0334
36.8387
36.6442
36.4499
36.2561
36.0627
35.8699
35.6777
35.4864
35.2959
35.1065
34.918
34.7307
34.5447
34.3599
34.1766
33.9947
33.8143
33.6356
33.4585
33.2832
33.1097
32.9381
32.7684
32.6007
32.435
32.2714
32.11
31.9508
31.7937
31.639
31.4865
31.3364
31.1887
31.0434
30.9005
30.7601
30.6221
30.4867
30.3538
30.2235
30.0957
29.9705
29.8479
29.7279
29.6105
29.4957
29.3836
29.274
29.1671
29.0628
28.9612
28.8621
28.7657
28.6719
28.5806
28.492
28.4059
28.3224
28.2415
28.163
28.0871
28.0138
27.9428
27.8744
27.8084
27.7448
27.6837
27.6249
27.5685
27.5144
27.4626
27.4131
27.3658
27.3208
27.278
27.2373
27.1988
27.1625
27.1282
27.0959
27.0657
27.0375
27.0113
26.987
26.9646
26.944
26.9254
26.9085
26.8934
26.88
26.8684
26.8584
26.8501
26.8434
26.8383
26.8348
26.8328
26.8322
26.8332
26.8355
26.8393
26.8444
26.8508
26.8586
26.8676
26.8779
26.8894
26.902
26.9158
26.9308
26.9468
26.9639
26.982
27.0011
27.0212
27.0422
27.0642
27.0871
27.1108
27.1354
27.1607
27.1869
27.2138
27.2415
27.2698
27.2989
27.3286
27.359
27.3899
27.4215
27.4536
27.4863
27.5194
27.5531
27.5873
27.6219
27.6569
27.6924
27.7282
27.7645
27.801
27.8379
27.8752
27.9127
27.9505
27.9885
28.0268
28.0653
28.104
28.1429
28.182
28.2212
28.2606
28.3001
28.3397
28.3794
28.4192
28.459
28.4989
28.5388
28.5787
28.6187
28.6586
28.6985
28.7384
28.7783
28.818
28.8578
28.8974
28.9369
28.9764
29.0157
29.0549
29.0939
29.1328
29.1716
29.2102
29.2486
29.2868
29.3248
29.3626
29.4002
29.4376
29.4747
29.5116
29.5483
29.5847
29.6208
29.6566
29.6922
29.7275
29.7625
29.7971
29.8315
29.8656
29.8993
29.9327
29.9657
29.9984
30.0308
30.0628
30.0945
30.1257
30.1567
30.1872
30.2173
30.2471
30.2765
30.3054
30.334
30.3621
30.3899
30.4172
30.4441
30.4706
30.4966
30.5222
30.5474
30.5721
30.5964
30.6202
30.6436
30.6665
30.6889
30.7109
30.7325
30.7535
30.7741
30.7942
30.8138
30.8329
30.8516
30.8697
30.8874
30.9046
30.9213
30.9375
30.9531
30.9683
30.983
30.9972
31.0108
31.024
31.0366
31.0487
31.0603
31.0714
31.082
31.0921
31.1016
31.1106
31.1191
31.1271
31.1345
31.1414
31.1478
31.1536
31.159
31.1638
31.168
31.1717
31.1749
31.1776
31.1797
31.1813
31.1824
31.1829
44.0148
44.0049
43.9858
43.958
43.9219
43.8785
43.8278
43.7704
43.7066
43.6366
43.5607
43.479
43.3917
43.2991
43.2011
43.098
42.9898
42.8768
42.759
42.6367
42.5098
42.3787
42.2433
42.104
41.9607
41.8137
41.6631
41.5091
41.3518
41.1913
41.0278
40.8615
40.6924
40.5208
40.3468
40.1705
39.9921
39.8117
39.6294
39.4455
39.2599
39.0729
38.8846
38.6952
38.5047
38.3132
38.121
37.9282
37.7347
37.5409
37.3468
37.1525
36.9581
36.7637
36.5696
36.3757
36.1822
35.9891
35.7967
35.6049
35.4139
35.2238
35.0347
34.8466
34.6596
34.4739
34.2895
34.1065
33.9249
33.7449
33.5665
33.3898
33.2148
33.0416
32.8703
32.701
32.5336
32.3682
32.205
32.0438
31.8849
31.7282
31.5737
31.4216
31.2717
31.1243
30.9793
30.8367
30.6965
30.5589
30.4237
30.2911
30.161
30.0335
29.9085
29.7862
29.6664
29.5493
29.4347
29.3228
29.2135
29.1068
29.0027
28.9013
28.8024
28.7062
28.6126
28.5215
28.4331
28.3472
28.2639
28.1831
28.1048
28.0291
27.9559
27.8851
27.8168
27.751
27.6875
27.6265
27.5679
27.5116
27.4576
27.4059
27.3565
27.3094
27.2645
27.2218
27.1812
27.1428
27.1065
27.0723
27.0402
27.0101
26.9819
26.9558
26.9315
26.9092
26.8887
26.8701
26.8533
26.8382
26.8249
26.8133
26.8034
26.7952
26.7885
26.7834
26.7799
26.7779
26.7774
26.7784
26.7807
26.7845
26.7896
26.7961
26.8039
26.8129
26.8231
26.8346
26.8473
26.8611
26.876
26.892
26.9091
26.9272
26.9463
26.9664
26.9874
27.0093
27.0322
27.0559
27.0804
27.1057
27.1319
27.1588
27.1864
27.2147
27.2437
27.2734
27.3037
27.3347
27.3662
27.3982
27.4308
27.464
27.4976
27.5317
27.5663
27.6013
27.6367
27.6725
27.7086
27.7452
27.782
27.8192
27.8566
27.8944
27.9323
27.9706
28.009
28.0477
28.0865
28.1255
28.1647
28.204
28.2434
28.283
28.3226
28.3623
28.4021
28.4419
28.4817
28.5216
28.5615
28.6014
28.6412
28.681
28.7208
28.7605
28.8002
28.8397
28.8792
28.9186
28.9578
28.997
29.0359
29.0748
29.1135
29.152
29.1903
29.2285
29.2664
29.3042
29.3417
29.379
29.4161
29.4529
29.4895
29.5258
29.5619
29.5977
29.6332
29.6684
29.7033
29.7379
29.7722
29.8062
29.8399
29.8732
29.9062
29.9389
29.9712
30.0031
30.0347
30.066
30.0968
30.1273
30.1574
30.1871
30.2164
30.2453
30.2738
30.3019
30.3296
30.3569
30.3837
30.4102
30.4362
30.4617
30.4869
30.5115
30.5358
30.5595
30.5829
30.6058
30.6282
30.6501
30.6716
30.6926
30.7131
30.7332
30.7528
30.7719
30.7905
30.8086
30.8263
30.8434
30.8601
30.8762
30.8919
30.907
30.9217
30.9358
30.9495
30.9626
30.9752
30.9873
30.9989
31.01
31.0205
31.0306
31.0401
31.0491
31.0575
31.0655
31.0729
31.0798
31.0862
31.092
31.0973
31.1021
31.1064
31.1101
31.1133
31.1159
31.1181
31.1197
31.1207
31.1213
43.9982
43.9885
43.9695
43.9419
43.9061
43.8627
43.8121
43.7548
43.6909
43.6209
43.5449
43.4631
43.3757
43.2829
43.1848
43.0815
42.9732
42.8601
42.7422
42.6197
42.4928
42.3615
42.2261
42.0866
41.9433
41.7962
41.6455
41.4915
41.3341
41.1735
41.01
40.8436
40.6745
40.5028
40.3288
40.1525
39.974
39.7936
39.6113
39.4273
39.2417
39.0547
38.8664
38.6769
38.4864
38.2949
38.1027
37.9098
37.7164
37.5226
37.3284
37.1341
36.9397
36.7454
36.5512
36.3573
36.1638
35.9708
35.7784
35.5866
35.3956
35.2056
35.0164
34.8284
34.6414
34.4558
34.2714
34.0884
33.9069
33.7269
33.5485
33.3718
33.1969
33.0237
32.8525
32.6832
32.5158
32.3505
32.1873
32.0262
31.8673
31.7106
31.5562
31.4041
31.2543
31.1069
30.962
30.8194
30.6793
30.5417
30.4066
30.2741
30.144
30.0166
29.8917
29.7694
29.6497
29.5326
29.4181
29.3062
29.197
29.0903
28.9863
28.8849
28.7862
28.69
28.5964
28.5054
28.417
28.3312
28.248
28.1672
28.0891
28.0134
27.9402
27.8695
27.8013
27.7355
27.6721
27.6112
27.5526
27.4963
27.4424
27.3908
27.3415
27.2944
27.2496
27.2069
27.1664
27.1281
27.0919
27.0577
27.0256
26.9956
26.9675
26.9414
26.9172
26.8949
26.8745
26.8559
26.8391
26.8242
26.8109
26.7994
26.7895
26.7813
26.7747
26.7697
26.7662
26.7642
26.7638
26.7648
26.7672
26.771
26.7762
26.7827
26.7905
26.7996
26.8099
26.8214
26.8341
26.8479
26.8629
26.8789
26.896
26.9142
26.9333
26.9534
26.9745
26.9965
27.0193
27.0431
27.0676
27.093
27.1192
27.1461
27.1738
27.2021
27.2312
27.2609
27.2912
27.3221
27.3537
27.3858
27.4184
27.4516
27.4852
27.5194
27.5539
27.5889
27.6244
27.6602
27.6964
27.7329
27.7698
27.807
27.8444
27.8822
27.9202
27.9584
27.9969
28.0356
28.0744
28.1135
28.1526
28.192
28.2314
28.271
28.3106
28.3503
28.3901
28.4299
28.4698
28.5097
28.5495
28.5894
28.6293
28.6691
28.7089
28.7486
28.7883
28.8278
28.8673
28.9067
28.946
28.9851
29.0241
29.0629
29.1016
29.1401
29.1785
29.2166
29.2546
29.2924
29.3299
29.3672
29.4043
29.4411
29.4777
29.514
29.5501
29.5859
29.6214
29.6566
29.6915
29.7261
29.7604
29.7944
29.8281
29.8614
29.8944
29.9271
29.9594
29.9914
30.0229
30.0542
30.085
30.1155
30.1456
30.1753
30.2046
30.2335
30.262
30.2901
30.3178
30.3451
30.3719
30.3984
30.4244
30.4499
30.475
30.4997
30.524
30.5477
30.5711
30.5939
30.6163
30.6383
30.6598
30.6808
30.7013
30.7214
30.741
30.7601
30.7787
30.7968
30.8144
30.8316
30.8482
30.8644
30.88
30.8952
30.9098
30.924
30.9376
30.9507
30.9634
30.9755
30.987
30.9981
31.0087
31.0187
31.0282
31.0372
31.0457
31.0536
31.0611
31.0679
31.0743
31.0802
31.0855
31.0903
31.0945
31.0982
31.1014
31.1041
31.1062
31.1078
31.1089
31.1094
43.9419
43.9318
43.9117
43.8826
43.845
43.7998
43.7474
43.6885
43.6232
43.552
43.475
43.3925
43.3045
43.2112
43.1127
43.0091
42.9006
42.7873
42.6693
42.5467
42.4197
42.2884
42.153
42.0136
41.8703
41.7232
41.5726
41.4186
41.2613
41.1008
40.9374
40.7711
40.6021
40.4306
40.2567
40.0805
39.9022
39.7219
39.5398
39.3559
39.1705
38.9837
38.7956
38.6063
38.4159
38.2247
38.0327
37.84
37.6468
37.4531
37.2592
37.0651
36.871
36.6769
36.4829
36.2893
36.096
35.9032
35.711
35.5195
35.3288
35.1389
34.95
34.7622
34.5755
34.3901
34.206
34.0232
33.8419
33.6622
33.4841
33.3076
33.133
32.9601
32.7891
32.62
32.4529
32.2878
32.1248
31.964
31.8053
31.6489
31.4948
31.3429
31.1934
31.0462
30.9015
30.7592
30.6193
30.4819
30.3471
30.2147
30.0849
29.9577
29.833
29.7109
29.5915
29.4746
29.3603
29.2486
29.1396
29.0332
28.9294
28.8282
28.7296
28.6336
28.5403
28.4495
28.3613
28.2756
28.1925
28.112
28.034
27.9585
27.8855
27.815
27.7469
27.6813
27.6181
27.5573
27.4988
27.4428
27.389
27.3375
27.2883
27.2414
27.1967
27.1542
27.1138
27.0756
27.0395
27.0055
26.9735
26.9435
26.9156
26.8896
26.8655
26.8433
26.823
26.8045
26.7879
26.773
26.7598
26.7483
26.7386
26.7304
26.7239
26.719
26.7156
26.7137
26.7133
26.7144
26.7168
26.7207
26.7259
26.7325
26.7404
26.7495
26.7598
26.7714
26.7841
26.798
26.813
26.8291
26.8463
26.8644
26.8836
26.9037
26.9248
26.9468
26.9697
26.9935
27.0181
27.0435
27.0696
27.0966
27.1242
27.1526
27.1817
27.2114
27.2417
27.2727
27.3042
27.3363
27.3689
27.4021
27.4357
27.4699
27.5044
27.5394
27.5749
27.6107
27.6468
27.6834
27.7202
27.7574
27.7948
27.8326
27.8706
27.9088
27.9472
27.9859
28.0247
28.0637
28.1029
28.1422
28.1816
28.2211
28.2607
28.3004
28.3402
28.38
28.4198
28.4597
28.4995
28.5394
28.5792
28.619
28.6588
28.6984
28.7381
28.7776
28.8171
28.8564
28.8956
28.9347
28.9737
29.0125
29.0512
29.0896
29.1279
29.1661
29.204
29.2417
29.2792
29.3165
29.3535
29.3903
29.4269
29.4632
29.4992
29.5349
29.5704
29.6056
29.6405
29.6751
29.7093
29.7433
29.7769
29.8102
29.8432
29.8758
29.9081
29.94
29.9716
30.0027
30.0336
30.064
30.0941
30.1237
30.153
30.1819
30.2104
30.2385
30.2661
30.2933
30.3202
30.3466
30.3725
30.3981
30.4232
30.4478
30.472
30.4958
30.5191
30.5419
30.5643
30.5862
30.6077
30.6287
30.6492
30.6692
30.6888
30.7078
30.7264
30.7445
30.7622
30.7793
30.7959
30.812
30.8277
30.8428
30.8574
30.8716
30.8852
30.8983
30.9109
30.923
30.9345
30.9456
30.9561
30.9662
30.9757
30.9847
30.9931
31.0011
31.0085
31.0154
31.0217
31.0276
31.0329
31.0376
31.0419
31.0456
31.0488
31.0515
31.0536
31.0552
31.0562
31.0568
43.9141
43.9042
43.8845
43.8558
43.8186
43.7737
43.7216
43.6627
43.5975
43.5262
43.4491
43.3664
43.2782
43.1846
43.0859
42.9821
42.8733
42.7598
42.6415
42.5187
42.3915
42.26
42.1243
41.9847
41.8412
41.694
41.5432
41.3891
41.2316
41.071
40.9074
40.741
40.5719
40.4003
40.2262
40.05
39.8715
39.6912
39.509
39.325
39.1396
38.9527
38.7645
38.5751
38.3847
38.1934
38.0014
37.8086
37.6154
37.4217
37.2278
37.0336
36.8395
36.6453
36.4514
36.2577
36.0644
35.8716
35.6794
35.4879
35.2972
35.1074
34.9185
34.7307
34.544
34.3586
34.1745
33.9918
33.8106
33.6309
33.4528
33.2764
33.1018
32.9289
32.758
32.589
32.4219
32.2569
32.094
31.9332
31.7746
31.6183
31.4642
31.3124
31.163
31.0159
30.8712
30.729
30.5892
30.452
30.3172
30.1849
30.0552
29.9281
29.8035
29.6815
29.5622
29.4454
29.3312
29.2197
29.1107
29.0044
28.9007
28.7996
28.7011
28.6053
28.512
28.4213
28.3332
28.2477
28.1647
28.0843
28.0064
27.931
27.8582
27.7878
27.7198
27.6543
27.5912
27.5305
27.4722
27.4162
27.3626
27.3112
27.2621
27.2153
27.1707
27.1283
27.0881
27.05
27.014
26.9801
26.9482
26.9183
26.8905
26.8646
26.8406
26.8186
26.7983
26.78
26.7634
26.7486
26.7355
26.7242
26.7145
26.7065
26.7001
26.6952
26.6919
26.6901
26.6898
26.691
26.6936
26.6975
26.7028
26.7095
26.7174
26.7266
26.7371
26.7487
26.7615
26.7755
26.7906
26.8067
26.824
26.8422
26.8615
26.8817
26.9028
26.9249
26.9479
26.9717
26.9963
27.0218
27.048
27.075
27.1028
27.1312
27.1603
27.1901
27.2205
27.2515
27.2831
27.3152
27.3479
27.3812
27.4149
27.449
27.4837
27.5187
27.5542
27.59
27.6262
27.6628
27.6997
27.7369
27.7744
27.8122
27.8502
27.8885
27.927
27.9657
28.0045
28.0436
28.0828
28.1221
28.1615
28.2011
28.2407
28.2805
28.3202
28.3601
28.3999
28.4398
28.4797
28.5196
28.5594
28.5992
28.639
28.6787
28.7184
28.7579
28.7974
28.8367
28.876
28.9151
28.9541
28.9929
29.0316
29.0701
29.1084
29.1465
29.1845
29.2222
29.2597
29.297
29.3341
29.3709
29.4074
29.4437
29.4798
29.5155
29.551
29.5862
29.6211
29.6557
29.69
29.7239
29.7576
29.7909
29.8238
29.8565
29.8888
29.9207
29.9522
29.9834
30.0143
30.0447
30.0748
30.1044
30.1337
30.1626
30.1911
30.2192
30.2468
30.2741
30.3009
30.3273
30.3533
30.3788
30.4039
30.4285
30.4527
30.4765
30.4998
30.5226
30.545
30.5669
30.5884
30.6094
30.6299
30.6499
30.6695
30.6886
30.7072
30.7253
30.7429
30.76
30.7766
30.7928
30.8084
30.8235
30.8382
30.8523
30.8659
30.879
30.8916
30.9037
30.9153
30.9263
30.9369
30.9469
30.9564
30.9654
30.9738
30.9818
30.9892
30.9961
31.0024
31.0083
31.0136
31.0184
31.0226
31.0263
31.0295
31.0322
31.0343
31.0359
31.037
31.0375
43.8586
43.8487
43.8286
43.7995
43.7616
43.716
43.663
43.6034
43.5373
43.4653
43.3875
43.3041
43.2153
43.1212
43.022
42.9177
42.8086
42.6947
42.5762
42.4531
42.3257
42.194
42.0582
41.9184
41.7748
41.6275
41.4766
41.3223
41.1648
41.0042
40.8405
40.6741
40.505
40.3333
40.1593
39.983
39.8046
39.6242
39.4421
39.2582
39.0727
38.8859
38.6978
38.5085
38.3181
38.1269
37.9349
37.7423
37.5491
37.3556
37.1617
36.9677
36.7736
36.5796
36.3858
36.1923
35.9991
35.8065
35.6144
35.423
35.2325
35.0428
34.8541
34.6664
34.4799
34.2947
34.1107
33.9282
33.7471
33.5676
33.3897
33.2135
33.0391
32.8664
32.6957
32.5268
32.36
32.1952
32.0325
31.8719
31.7135
31.5573
31.4035
31.2519
31.1026
30.9558
30.8113
30.6693
30.5297
30.3927
30.2581
30.126
29.9965
29.8696
29.7453
29.6235
29.5043
29.3877
29.2738
29.1624
29.0537
28.9476
28.8441
28.7432
28.6449
28.5493
28.4562
28.3657
28.2778
28.1925
28.1097
28.0295
27.9518
27.8766
27.8039
27.7337
27.6659
27.6006
27.5377
27.4772
27.4191
27.3633
27.3098
27.2586
27.2097
27.1631
27.1186
27.0764
27.0363
26.9984
26.9625
26.9288
26.8971
26.8674
26.8397
26.8139
26.7901
26.7682
26.7481
26.7299
26.7134
26.6988
26.6858
26.6746
26.6651
26.6572
26.6509
26.6461
26.643
26.6413
26.6411
26.6424
26.645
26.6491
26.6545
26.6613
26.6693
26.6786
26.6892
26.7009
26.7138
26.7279
26.743
26.7593
26.7766
26.7949
26.8142
26.8345
26.8558
26.8779
26.9009
26.9248
26.9495
26.9751
27.0014
27.0284
27.0562
27.0847
27.1139
27.1437
27.1741
27.2052
27.2368
27.269
27.3018
27.335
27.3687
27.403
27.4376
27.4727
27.5082
27.5441
27.5803
27.6169
27.6539
27.6911
27.7286
27.7664
27.8045
27.8427
27.8812
27.9199
27.9588
27.9979
28.0371
28.0764
28.1159
28.1555
28.1951
28.2348
28.2746
28.3145
28.3543
28.3942
28.4341
28.474
28.5138
28.5536
28.5934
28.6331
28.6728
28.7123
28.7518
28.7911
28.8304
28.8695
28.9085
28.9473
28.9859
29.0244
29.0628
29.1009
29.1388
29.1765
29.214
29.2513
29.2883
29.3251
29.3617
29.398
29.434
29.4698
29.5052
29.5404
29.5753
29.6099
29.6441
29.6781
29.7117
29.745
29.7779
29.8105
29.8428
29.8747
29.9063
29.9374
29.9683
29.9987
30.0287
30.0584
30.0877
30.1165
30.145
30.1731
30.2007
30.2279
30.2547
30.2811
30.3071
30.3326
30.3577
30.3823
30.4065
30.4302
30.4535
30.4763
30.4987
30.5206
30.5421
30.563
30.5835
30.6036
30.6231
30.6422
30.6608
30.6788
30.6964
30.7136
30.7302
30.7463
30.7619
30.777
30.7917
30.8058
30.8194
30.8325
30.8451
30.8572
30.8687
30.8798
30.8903
30.9003
30.9098
30.9188
30.9272
30.9352
30.9426
30.9495
30.9558
30.9617
30.967
30.9717
30.976
30.9797
30.9829
30.9855
30.9877
30.9893
30.9903
30.9909
43.8235
43.8138
43.794
43.7653
43.7279
43.6827
43.63
43.5705
43.5045
43.4324
43.3544
43.2708
43.1817
43.0873
42.9877
42.8832
42.7737
42.6595
42.5406
42.4172
42.2894
42.1574
42.0213
41.8812
41.7373
41.5897
41.4386
41.2841
41.1263
40.9655
40.8016
40.635
40.4656
40.2938
40.1196
39.9431
39.7646
39.584
39.4017
39.2177
39.0321
38.8451
38.6569
38.4674
38.277
38.0857
37.8936
37.7009
37.5076
37.314
37.12
36.926
36.7318
36.5378
36.3439
36.1503
35.9571
35.7645
35.5724
35.381
35.1904
35.0007
34.812
34.6244
34.4379
34.2526
34.0687
33.8862
33.7052
33.5257
33.3478
33.1717
32.9973
32.8247
32.654
32.4852
32.3184
32.1537
31.991
31.8305
31.6722
31.5162
31.3624
31.2109
31.0617
30.915
30.7706
30.6287
30.4892
30.3523
30.2178
30.0859
29.9565
29.8297
29.7055
29.5839
29.4648
29.3484
29.2345
29.1233
29.0148
28.9088
28.8054
28.7047
28.6066
28.5111
28.4181
28.3278
28.2401
28.1549
28.0723
27.9922
27.9147
27.8396
27.7671
27.6971
27.6294
27.5643
27.5015
27.4412
27.3832
27.3276
27.2743
27.2233
27.1745
27.128
27.0838
27.0417
27.0018
26.964
26.9283
26.8947
26.8632
26.8336
26.8061
26.7805
26.7568
26.735
26.7151
26.697
26.6808
26.6663
26.6535
26.6424
26.633
26.6252
26.6191
26.6145
26.6115
26.6099
26.6099
26.6113
26.6141
26.6183
26.6239
26.6307
26.6389
26.6483
26.659
26.6709
26.6839
26.6981
26.7134
26.7297
26.7472
26.7656
26.785
26.8054
26.8268
26.849
26.8722
26.8962
26.921
26.9466
26.973
27.0002
27.0281
27.0567
27.0859
27.1158
27.1464
27.1775
27.2092
27.2415
27.2744
27.3077
27.3415
27.3758
27.4105
27.4457
27.4813
27.5172
27.5536
27.5902
27.6272
27.6645
27.7021
27.74
27.7781
27.8164
27.855
27.8938
27.9327
27.9718
28.0111
28.0505
28.09
28.1296
28.1693
28.2091
28.2489
28.2888
28.3287
28.3686
28.4086
28.4485
28.4884
28.5282
28.5681
28.6078
28.6475
28.6871
28.7266
28.766
28.8052
28.8444
28.8834
28.9223
28.9609
28.9995
29.0378
29.076
29.1139
29.1517
29.1892
29.2265
29.2636
29.3004
29.3369
29.3733
29.4093
29.4451
29.4806
29.5157
29.5506
29.5852
29.6195
29.6535
29.6871
29.7204
29.7534
29.786
29.8183
29.8502
29.8818
29.913
29.9438
29.9742
30.0043
30.034
30.0632
30.0921
30.1206
30.1487
30.1763
30.2036
30.2304
30.2568
30.2827
30.3082
30.3333
30.358
30.3822
30.4059
30.4292
30.452
30.4744
30.4963
30.5178
30.5387
30.5592
30.5793
30.5988
30.6179
30.6365
30.6546
30.6722
30.6893
30.7059
30.722
30.7377
30.7528
30.7674
30.7815
30.7951
30.8082
30.8208
30.8329
30.8445
30.8555
30.8661
30.8761
30.8856
30.8946
30.903
30.9109
30.9183
30.9252
30.9316
30.9374
30.9427
30.9475
30.9517
30.9555
30.9586
30.9613
30.9634
30.965
30.9661
30.9666
43.7694
43.7596
43.7399
43.7111
43.6736
43.6281
43.5751
43.5152
43.4487
43.3761
43.2976
43.2134
43.1238
43.0289
42.9288
42.8237
42.7138
42.5991
42.4798
42.3561
42.2279
42.0956
41.9592
41.8188
41.6747
41.5268
41.3755
41.2207
41.0628
40.9017
40.7377
40.5709
40.4014
40.2294
40.0551
39.8785
39.6998
39.5192
39.3368
39.1527
38.967
38.78
38.5917
38.4022
38.2117
38.0204
37.8282
37.6355
37.4422
37.2486
37.0547
36.8606
36.6665
36.4725
36.2786
36.0851
35.8919
35.6993
35.5073
35.316
35.1255
34.9358
34.7472
34.5597
34.3733
34.1881
34.0043
33.8219
33.641
33.4616
33.2839
33.1079
32.9336
32.7611
32.5906
32.4219
32.2553
32.0907
31.9283
31.7679
31.6098
31.4539
31.3003
31.1489
31
30.8534
30.7092
30.5675
30.4282
30.2915
30.1572
30.0255
29.8963
29.7697
29.6457
29.5242
29.4054
29.2892
29.1756
29.0646
28.9562
28.8504
28.7473
28.6468
28.5489
28.4536
28.3609
28.2707
28.1832
28.0983
28.0159
27.936
27.8587
27.7839
27.7115
27.6417
27.5743
27.5094
27.4468
27.3867
27.3289
27.2735
27.2204
27.1696
27.121
27.0748
27.0307
26.9888
26.9491
26.9115
26.876
26.8426
26.8113
26.7819
26.7546
26.7292
26.7057
26.6841
26.6644
26.6465
26.6304
26.6161
26.6035
26.5926
26.5833
26.5757
26.5697
26.5653
26.5625
26.5611
26.5612
26.5628
26.5657
26.5701
26.5758
26.5828
26.5911
26.6007
26.6115
26.6235
26.6367
26.651
26.6664
26.6829
26.7005
26.719
26.7386
26.7591
26.7806
26.8029
26.8262
26.8503
26.8752
26.901
26.9275
26.9547
26.9827
27.0114
27.0408
27.0708
27.1014
27.1326
27.1644
27.1968
27.2297
27.2631
27.297
27.3314
27.3662
27.4014
27.4371
27.4731
27.5095
27.5462
27.5833
27.6207
27.6583
27.6962
27.7344
27.7728
27.8114
27.8502
27.8892
27.9284
27.9677
28.0071
28.0467
28.0864
28.1261
28.1659
28.2058
28.2457
28.2857
28.3256
28.3656
28.4055
28.4455
28.4853
28.5252
28.565
28.6047
28.6443
28.6838
28.7232
28.7625
28.8017
28.8407
28.8796
28.9183
28.9568
28.9952
29.0333
29.0713
29.1091
29.1466
29.1839
29.221
29.2578
29.2944
29.3307
29.3668
29.4026
29.438
29.4732
29.5081
29.5427
29.577
29.611
29.6446
29.678
29.7109
29.7436
29.7758
29.8078
29.8393
29.8705
29.9013
29.9318
29.9618
29.9915
30.0208
30.0496
30.0781
30.1062
30.1338
30.1611
30.1879
30.2143
30.2402
30.2657
30.2908
30.3155
30.3397
30.3634
30.3867
30.4095
30.4319
30.4538
30.4752
30.4962
30.5167
30.5367
30.5563
30.5753
30.5939
30.612
30.6296
30.6467
30.6633
30.6795
30.6951
30.7102
30.7248
30.7389
30.7525
30.7656
30.7782
30.7903
30.8019
30.8129
30.8234
30.8335
30.843
30.8519
30.8604
30.8683
30.8757
30.8826
30.889
30.8948
30.9001
30.9049
30.9091
30.9128
30.916
30.9187
30.9208
30.9224
30.9234
30.924
43.7295
43.7199
43.7004
43.672
43.6348
43.5897
43.5369
43.4772
43.4107
43.338
43.2593
43.1749
43.0849
42.9896
42.8891
42.7837
42.6733
42.5582
42.4385
42.3143
42.1857
42.053
41.9162
41.7754
41.6309
41.4827
41.331
41.1759
41.0176
40.8562
40.6919
40.5248
40.355
40.1828
40.0082
39.8313
39.6524
39.4715
39.2889
39.1046
38.9187
38.7315
38.543
38.3533
38.1627
37.9711
37.7789
37.586
37.3926
37.1988
37.0047
36.8106
36.6164
36.4222
36.2283
36.0347
35.8415
35.6488
35.4567
35.2653
35.0747
34.8851
34.6964
34.5089
34.3224
34.1373
33.9535
33.7711
33.5902
33.4108
33.2331
33.0571
32.8829
32.7105
32.54
32.3714
32.2048
32.0403
31.8779
31.7177
31.5596
31.4038
31.2503
31.0991
30.9502
30.8037
30.6597
30.5181
30.3789
30.2423
30.1082
29.9766
29.8476
29.7211
29.5972
29.4759
29.3573
29.2412
29.1277
29.0169
28.9087
28.8031
28.7002
28.5998
28.5021
28.407
28.3145
28.2246
28.1372
28.0525
27.9703
27.8906
27.8135
27.7388
27.6667
27.5971
27.5299
27.4652
27.4028
27.3429
27.2853
27.2301
27.1772
27.1266
27.0783
27.0322
26.9884
26.9467
26.9072
26.8698
26.8345
26.8013
26.7702
26.7411
26.7139
26.6887
26.6654
26.6441
26.6245
26.6068
26.5909
26.5768
26.5644
26.5537
26.5446
26.5372
26.5314
26.5272
26.5245
26.5234
26.5237
26.5254
26.5286
26.5331
26.539
26.5462
26.5547
26.5644
26.5754
26.5876
26.6009
26.6154
26.631
26.6476
26.6653
26.6841
26.7038
26.7244
26.7461
26.7686
26.792
26.8162
26.8413
26.8672
26.8938
26.9212
26.9493
26.9782
27.0076
27.0378
27.0685
27.0999
27.1318
27.1643
27.1973
27.2309
27.2649
27.2994
27.3343
27.3696
27.4054
27.4415
27.478
27.5148
27.552
27.5895
27.6272
27.6652
27.7035
27.742
27.7807
27.8196
27.8587
27.8979
27.9373
27.9768
28.0164
28.0562
28.096
28.1359
28.1758
28.2158
28.2558
28.2959
28.3359
28.3759
28.4159
28.4558
28.4957
28.5356
28.5753
28.615
28.6546
28.6941
28.7334
28.7726
28.8117
28.8506
28.8894
28.9279
28.9663
29.0046
29.0426
29.0804
29.1179
29.1553
29.1924
29.2293
29.2659
29.3022
29.3383
29.3741
29.4097
29.4449
29.4798
29.5144
29.5488
29.5828
29.6164
29.6498
29.6828
29.7154
29.7477
29.7797
29.8112
29.8424
29.8733
29.9038
29.9338
29.9635
29.9928
30.0217
30.0502
30.0783
30.1059
30.1332
30.16
30.1864
30.2124
30.2379
30.263
30.2877
30.3119
30.3356
30.3589
30.3818
30.4041
30.4261
30.4475
30.4685
30.489
30.509
30.5286
30.5477
30.5662
30.5843
30.6019
30.6191
30.6357
30.6518
30.6674
30.6826
30.6972
30.7113
30.7249
30.738
30.7506
30.7627
30.7743
30.7853
30.7958
30.8059
30.8154
30.8243
30.8328
30.8407
30.8481
30.855
30.8614
30.8672
30.8725
30.8773
30.8815
30.8852
30.8884
30.8911
30.8932
30.8948
30.8959
30.8964
43.6767
43.6671
43.6477
43.6194
43.5822
43.5371
43.4842
43.4242
43.3574
43.2843
43.2052
43.1203
43.0298
42.9339
42.8329
42.7269
42.616
42.5004
42.3802
42.2555
42.1265
41.9933
41.8561
41.715
41.57
41.4215
41.2694
41.114
40.9554
40.7937
40.6291
40.4617
40.2916
40.1191
39.9442
39.7672
39.588
39.407
39.2241
39.0396
38.8536
38.6662
38.4775
38.2877
38.0969
37.9052
37.7129
37.5198
37.3263
37.1325
36.9383
36.7441
36.5498
36.3556
36.1617
35.968
35.7747
35.582
35.3899
35.1986
35.008
34.8184
34.6297
34.4422
34.2558
34.0707
33.8869
33.7046
33.5238
33.3445
33.1668
32.9909
32.8168
32.6445
32.4741
32.3056
32.1391
31.9748
31.8125
31.6524
31.4945
31.3388
31.1854
31.0344
30.8857
30.7394
30.5955
30.454
30.3151
30.1786
30.0447
29.9133
29.7845
29.6582
29.5345
29.4134
29.295
29.1791
29.0659
28.9553
28.8473
28.7419
28.6392
28.5391
28.4416
28.3467
28.2544
28.1647
28.0776
27.9931
27.9111
27.8317
27.7548
27.6805
27.6086
27.5392
27.4722
27.4077
27.3457
27.286
27.2286
27.1737
27.121
27.0707
27.0226
26.9768
26.9331
26.8917
26.8525
26.8153
26.7803
26.7473
26.7164
26.6875
26.6606
26.6356
26.6126
26.5914
26.5721
26.5547
26.539
26.5251
26.5129
26.5024
26.4936
26.4864
26.4808
26.4768
26.4743
26.4734
26.4739
26.4758
26.4792
26.4839
26.49
26.4974
26.5061
26.516
26.5272
26.5395
26.553
26.5677
26.5835
26.6003
26.6182
26.6371
26.6569
26.6778
26.6996
26.7222
26.7458
26.7702
26.7954
26.8214
26.8482
26.8758
26.904
26.933
26.9626
26.9929
27.0238
27.0553
27.0873
27.1199
27.1531
27.1867
27.2209
27.2555
27.2905
27.3259
27.3618
27.398
27.4346
27.4716
27.5088
27.5464
27.5842
27.6223
27.6607
27.6993
27.7381
27.777
27.8162
27.8555
27.895
27.9346
27.9743
28.0141
28.054
28.094
28.134
28.174
28.2141
28.2542
28.2943
28.3343
28.3744
28.4144
28.4543
28.4942
28.534
28.5738
28.6134
28.6529
28.6923
28.7316
28.7707
28.8096
28.8484
28.8871
28.9255
28.9637
29.0018
29.0396
29.0772
29.1146
29.1518
29.1886
29.2253
29.2617
29.2978
29.3336
29.3692
29.4044
29.4394
29.474
29.5084
29.5424
29.5761
29.6094
29.6424
29.6751
29.7074
29.7394
29.771
29.8022
29.8331
29.8635
29.8936
29.9233
29.9526
29.9815
30.01
30.0381
30.0658
30.0931
30.1199
30.1463
30.1723
30.1978
30.2229
30.2476
30.2718
30.2956
30.3189
30.3417
30.3641
30.386
30.4075
30.4285
30.449
30.469
30.4886
30.5076
30.5262
30.5443
30.5619
30.5791
30.5957
30.6118
30.6274
30.6426
30.6572
30.6713
30.6849
30.698
30.7106
30.7227
30.7343
30.7453
30.7559
30.7659
30.7754
30.7844
30.7928
30.8007
30.8082
30.815
30.8214
30.8272
30.8325
30.8373
30.8415
30.8453
30.8485
30.8511
30.8532
30.8548
30.8559
30.8564
43.6336
43.6241
43.605
43.5769
43.54
43.4951
43.4423
43.3824
43.3156
43.2424
43.163
43.0777
42.9869
42.8906
42.7891
42.6826
42.5712
42.4551
42.3344
42.2092
42.0797
41.946
41.8083
41.6667
41.5213
41.3722
41.2197
41.0639
40.9048
40.7427
40.5777
40.41
40.2396
40.0667
39.8915
39.7141
39.5346
39.3532
39.17
38.9852
38.7989
38.6112
38.4223
38.2323
38.0412
37.8493
37.6567
37.4635
37.2698
37.0757
36.8814
36.687
36.4926
36.2982
36.1041
35.9103
35.717
35.5241
35.3319
35.1405
34.9498
34.7601
34.5714
34.3838
34.1974
34.0123
33.8285
33.6461
33.4653
33.286
33.1084
32.9325
32.7583
32.5861
32.4157
32.2473
32.0809
31.9166
31.7543
31.5943
31.4365
31.2809
31.1276
30.9767
30.8281
30.6819
30.5382
30.3969
30.258
30.1217
29.9879
29.8567
29.728
29.6019
29.4784
29.3575
29.2392
29.1236
29.0105
28.9001
28.7923
28.6872
28.5846
28.4847
28.3875
28.2928
28.2007
28.1113
28.0244
27.9401
27.8584
27.7792
27.7025
27.6284
27.5568
27.4876
27.4209
27.3567
27.2948
27.2354
27.1783
27.1236
27.0712
27.0211
26.9733
26.9277
26.8843
26.8431
26.8041
26.7673
26.7325
26.6998
26.6691
26.6405
26.6138
26.5891
26.5663
26.5454
26.5263
26.5091
26.4937
26.48
26.4681
26.4578
26.4493
26.4423
26.437
26.4332
26.431
26.4302
26.431
26.4331
26.4367
26.4417
26.448
26.4556
26.4645
26.4747
26.486
26.4986
26.5123
26.5272
26.5432
26.5602
26.5783
26.5974
26.6174
26.6385
26.6604
26.6833
26.7071
26.7316
26.7571
26.7833
26.8102
26.8379
26.8664
26.8955
26.9253
26.9557
26.9868
27.0184
27.0506
27.0834
27.1167
27.1505
27.1848
27.2195
27.2547
27.2903
27.3263
27.3627
27.3994
27.4365
27.4739
27.5115
27.5495
27.5877
27.6262
27.6649
27.7038
27.7429
27.7822
27.8216
27.8612
27.9009
27.9407
27.9806
28.0206
28.0606
28.1008
28.1409
28.1811
28.2212
28.2614
28.3016
28.3417
28.3818
28.4218
28.4618
28.5017
28.5415
28.5812
28.6208
28.6602
28.6995
28.7387
28.7778
28.8166
28.8553
28.8938
28.9321
28.9702
29.0081
29.0458
29.0832
29.1204
29.1573
29.194
29.2305
29.2666
29.3025
29.3381
29.3734
29.4084
29.4431
29.4775
29.5115
29.5452
29.5786
29.6117
29.6444
29.6767
29.7087
29.7404
29.7716
29.8025
29.833
29.8631
29.8929
29.9222
29.9511
29.9796
30.0078
30.0355
30.0627
30.0896
30.116
30.142
30.1676
30.1927
30.2174
30.2416
30.2654
30.2887
30.3116
30.334
30.3559
30.3774
30.3984
30.4189
30.439
30.4585
30.4776
30.4962
30.5143
30.532
30.5491
30.5657
30.5819
30.5975
30.6126
30.6273
30.6414
30.655
30.6681
30.6807
30.6928
30.7044
30.7154
30.726
30.736
30.7455
30.7545
30.763
30.7709
30.7783
30.7852
30.7916
30.7974
30.8027
30.8075
30.8117
30.8154
30.8186
30.8213
30.8234
30.825
30.8261
30.8266
43.5817
43.5722
43.5532
43.5252
43.4885
43.4435
43.3907
43.3306
43.2635
43.19
43.1101
43.0244
42.933
42.8362
42.7342
42.6271
42.5151
42.3984
42.2771
42.1514
42.0213
41.8871
41.7488
41.6067
41.4608
41.3113
41.1583
41.002
40.8425
40.68
40.5146
40.3464
40.1757
40.0024
39.8269
39.6491
39.4693
39.2876
39.1042
38.9191
38.7325
38.5445
38.3553
38.165
37.9738
37.7817
37.5888
37.3954
37.2015
37.0073
36.8128
36.6182
36.4237
36.2292
36.035
35.8411
35.6476
35.4547
35.2624
35.0709
34.8802
34.6904
34.5017
34.314
34.1276
33.9425
33.7587
33.5763
33.3955
33.2162
33.0387
32.8628
32.6887
32.5165
32.3462
32.1779
32.0116
31.8473
31.6852
31.5253
31.3676
31.2122
31.059
30.9082
30.7598
30.6137
30.4702
30.329
30.1904
30.0542
29.9206
29.7896
29.6611
29.5352
29.4119
29.2912
29.1732
29.0577
28.9449
28.8347
28.7272
28.6222
28.52
28.4203
28.3233
28.2289
28.1371
28.0479
27.9612
27.8772
27.7957
27.7168
27.6404
27.5666
27.4952
27.4263
27.3599
27.2959
27.2344
27.1752
27.1184
27.064
27.0119
26.9621
26.9145
26.8692
26.8261
26.7853
26.7465
26.7099
26.6754
26.643
26.6126
26.5843
26.5579
26.5334
26.5109
26.4903
26.4715
26.4546
26.4394
26.426
26.4143
26.4044
26.3961
26.3894
26.3843
26.3808
26.3788
26.3783
26.3793
26.3817
26.3855
26.3907
26.3973
26.4051
26.4143
26.4247
26.4363
26.4491
26.463
26.4781
26.4943